 Gaussian 16, Revision C.01,

 ------------------------------------------------------------
 #p irc=(calcfc,maxpoints=30,lqa,stepsize=8) 6-31g(d,p) m062x
 ------------------------------------------------------------

 -----
 TITLE
 -----
 Symbolic Z-matrix:
 Charge =  0 Multiplicity = 1

 SCF Done:  E(RM062X) =  -3557.96239804     A.U. after   16 cycles
 SCF Done:  E(RM062X) =  -3557.96253074     A.U. after   12 cycles
 SCF Done:  E(RM062X) =  -3557.96303060     A.U. after   12 cycles
 SCF Done:  E(RM062X) =  -3557.96396952     A.U. after   12 cycles
 SCF Done:  E(RM062X) =  -3557.96531841     A.U. after   12 cycles
 SCF Done:  E(RM062X) =  -3557.96689894     A.U. after   12 cycles
 SCF Done:  E(RM062X) =  -3557.96837374     A.U. after   12 cycles
 SCF Done:  E(RM062X) =  -3557.96947801     A.U. after   12 cycles
 SCF Done:  E(RM062X) =  -3557.97025098     A.U. after   10 cycles
 SCF Done:  E(RM062X) =  -3557.97082351     A.U. after   10 cycles
 Normal termination of Gaussian 16 at Wed Nov 16 06:34:13 2022.
 Gaussian 16:  ES64L-G16RevC.01  3-Jul-2019

 ----------------------------------------------------------------------
 #p irc=(restart,maxpoints=60,lqa,stepsize=15) 6-31g(d,p) m062x geom=al
 lcheck guess=read
 ----------------------------------------------------------------------

 SCF Done:  E(RM062X) =  -3557.97281586     A.U. after   10 cycles
 SCF Done:  E(RM062X) =  -3557.97283401     A.U. after   10 cycles
 SCF Done:  E(RM062X) =  -3557.97285213     A.U. after   10 cycles
 SCF Done:  E(RM062X) =  -3557.97287224     A.U. after   10 cycles
 SCF Done:  E(RM062X) =  -3557.97289076     A.U. after   10 cycles
 SCF Done:  E(RM062X) =  -3557.97290739     A.U. after    9 cycles
 SCF Done:  E(RM062X) =  -3557.97292175     A.U. after    9 cycles
 SCF Done:  E(RM062X) =  -3557.97293257     A.U. after   10 cycles
 SCF Done:  E(RM062X) =  -3557.97294277     A.U. after   10 cycles
 SCF Done:  E(RM062X) =  -3557.97295098     A.U. after    9 cycles

                          Input orientation:
 ---------------------------------------------------------------------
 Center     Atomic      Atomic             Coordinates (Angstroms)
 Number     Number       Type             X           Y           Z
 ---------------------------------------------------------------------
      1          8           0        0.748234    5.351203   -2.041111
      2          7           0       -1.351592    2.989061   -0.218861
      3          8           0       -1.237572    4.495033   -2.642796
      4          8           0       -3.125870    4.199674   -0.965759
      5          6           0        0.682081    4.158271    0.574453
      6          7           0       -6.251673   -0.806419    1.575524
      7          6           0       -5.301981    0.234893    1.170494
      8          6           0       -0.284031    4.547575   -1.720312
      9          6           0       -3.582402    2.174263    0.212333
     10          6           0       -0.283148    3.874388   -0.544515
     11          6           0       -2.663941    3.207889   -0.371718
     12          6           0       -3.087051    1.113860    0.968710
     13          6           0       -5.810880    1.329512    0.482886
     14          6           0       -4.950979    2.298464   -0.017548
     15          6           0       -3.929310    0.108276    1.433920
     16          8           0       -7.376530   -0.440863    1.868230
     17          8           0       -5.868168   -1.959010    1.557718
     18          1           0        0.501613    5.805910   -2.857290
     19          1           0       -1.051483    2.066358    0.090358
     20          1           0       -2.113265    4.434818   -2.145829
     21          1           0        1.560815    4.682100    0.196915
     22          1           0        0.211499    4.779822    1.344635
     23          1           0        1.029391    3.239709    1.060663
     24          1           0       -2.033278    1.034417    1.189299
     25          1           0       -5.317095    3.143136   -0.588838
     26          8           0        1.803947    1.737662   -0.959040
     27          8           0        1.343492   -0.458059   -1.905709
     28          6           0       -4.277357    1.985315   -3.389340
     29          8           0        2.216008   -0.320457    0.475779
     30          6           0        0.152842   -0.089515   -4.461114
     31          6           0        2.686988    4.904960    4.201331
     32          8           0       -0.171752    0.382198    0.072349
     33          6           0        4.461050    3.484144   -0.275809
     34          6           0        3.369371    0.004672    3.286065
     35          6           0       -2.955350   -2.197262   -0.965178
     36          6           0       -3.506862   -0.117622   -2.217568
     37          6           0        1.905479   -2.749462   -1.535163
     38          6           0        0.254599   -4.482848   -1.868324
     39          6           0       -2.051256    0.878207   -3.824368
     40          6           0       -3.261938    0.900452   -3.136375
     41          6           0        4.044570   -1.364415   -0.685293
     42          6           0       -1.346546   -1.116512   -2.650229
     43          6           0        0.972547   -1.803553   -1.927473
     44          6           0        3.383849   -2.627958   -1.213121
     45          6           0       -1.095149   -0.115165   -3.610052
     46          6           0        4.244834   -2.877630   -2.485494
     47          6           0       -2.579230   -1.126149   -1.961669
     48          6           0        1.513783   -4.087713   -1.439293
     49          6           0       -0.635410   -3.519955   -2.336654
     50          6           0        4.404160    0.670225    0.610183
     51          6           0        3.570627   -0.347939    0.131129
     52          6           0        5.661169   -2.432305   -2.086182
     53          6           0       -0.324090   -2.154008   -2.328816
     54          6           0        6.234916   -0.323950   -0.654653
     55          6           0        3.911186    1.750150    1.513780
     56          6           0        5.378295   -1.316784   -1.107995
     57          6           0        3.048983    2.464876    3.652932
     58          6           0        5.746232    0.645700    0.215882
     59          6           0        3.436249    1.431116    2.799635
     60          6           0        3.618745    4.095764    2.002345
     61          6           0        3.995486    3.094809    1.107355
     62          6           0        3.134360    3.803319    3.275390
     63          6           0        3.542904   -3.823163   -0.231430
     64          6           0        2.611371   -4.909812   -0.803139
     65         15           0        1.176705    0.352831   -0.536255
     66          1           0        1.151430    2.458981   -1.107060
     67          1           0       -4.323039    2.238966   -4.451682
     68          1           0       -5.273948    1.670756   -3.068751
     69          1           0       -4.025923    2.900008   -2.841280
     70          1           0       -0.102187    0.198442   -5.484098
     71          1           0        0.645449   -1.063523   -4.493990
     72          1           0        0.878844    0.633081   -4.077910
     73          1           0        3.333118    5.782498    4.113498
     74          1           0        1.666391    5.223682    3.961699
     75          1           0        2.694961    4.575521    5.243152
     76          1           0        4.132390    2.759264   -1.022769
     77          1           0        4.060870    4.464787   -0.546939
     78          1           0        5.552561    3.549810   -0.332820
     79          1           0        3.260197   -0.023417    4.372272
     80          1           0        4.275170   -0.547201    3.018852
     81          1           0        2.520969   -0.526142    2.845295
     82          1           0       -3.701903   -1.835492   -0.253320
     83          1           0       -3.407582   -3.060765   -1.465395
     84          1           0       -2.093795   -2.574034   -0.412963
     85          1           0       -4.451912   -0.129154   -1.676171
     86          1           0       -0.044288   -5.525705   -1.824419
     87          1           0       -1.847046    1.649525   -4.564602
     88          1           0        3.868242   -2.235298   -3.288660
     89          1           0        4.187585   -3.914999   -2.825449
     90          1           0       -1.619711   -3.820216   -2.679391
     91          1           0        6.258823   -2.097211   -2.937949
     92          1           0        6.214439   -3.246431   -1.602335
     93          1           0        7.270799   -0.297764   -0.979001
     94          1           0        2.687138    2.215307    4.648028
     95          1           0        6.405355    1.421388    0.593785
     96          1           0        3.687018    5.135216    1.685831
     97          1           0        4.583633   -4.143299   -0.130883
     98          1           0        3.182696   -3.510024    0.754817
     99          1           0        2.224230   -5.581485   -0.032223
    100          1           0        3.126927   -5.531219   -1.545045
    101          1           0       -6.882967    1.385206    0.335480
    102          8           0       -3.476263   -0.951421    2.137218
    103          6           0       -2.078308   -1.155495    2.131613
    104          1           0       -1.651278   -0.998726    1.135104
    105          1           0       -1.570068   -0.492865    2.842154
    106          6           0       -1.833196   -2.588906    2.552248
    107          6           0       -0.365266   -2.987078    2.346405
    108          9           0       -2.122240   -2.772930    3.857998
    109          9           0       -2.584026   -3.442522    1.830038
    110          9           0       -0.037014   -2.900357    1.053494
    111          9           0        0.428067   -2.162470    3.037325
    112          9           0       -0.152079   -4.231268    2.757308
 ---------------------------------------------------------------------

 Alpha  occ. eigenvalues --  -78.23889 -25.30842 -25.30811 -25.30532 -25.28424
 Alpha  occ. eigenvalues --  -25.28304 -19.70387 -19.70301 -19.70027 -19.69243
 Alpha  occ. eigenvalues --  -19.68648 -19.67458 -19.67237 -19.66624 -19.63769
 Alpha  occ. eigenvalues --  -19.63662 -15.01064 -14.80730 -10.81833 -10.74287
 Alpha  occ. eigenvalues --  -10.67930 -10.67904 -10.65399 -10.63136 -10.62912
 Alpha  occ. eigenvalues --  -10.62603 -10.62253 -10.59266 -10.58755 -10.58426
 Alpha  occ. eigenvalues --  -10.58182 -10.58021 -10.57492 -10.57069 -10.56894
 Alpha  occ. eigenvalues --  -10.56854 -10.56689 -10.56533 -10.56398 -10.56318
 Alpha  occ. eigenvalues --  -10.56078 -10.56053 -10.55967 -10.55962 -10.55870
 Alpha  occ. eigenvalues --  -10.55862 -10.55860 -10.55842 -10.55737 -10.55612
 Alpha  occ. eigenvalues --  -10.55602 -10.55391 -10.55353 -10.55279 -10.54997
 Alpha  occ. eigenvalues --  -10.54794 -10.54384 -10.54177 -10.54131 -10.53804
 Alpha  occ. eigenvalues --  -10.53578 -10.53521 -10.53520 -10.53510 -10.53337
 Alpha  occ. eigenvalues --  -10.53147  -7.01888  -5.13685  -5.13649  -5.13557
 Alpha  occ. eigenvalues --   -1.48135  -1.41962  -1.38680  -1.38581  -1.36416
 Alpha  occ. eigenvalues --   -1.35694  -1.25738  -1.24049  -1.22910  -1.19687
 Alpha  occ. eigenvalues --   -1.18578  -1.18133  -1.17700  -1.15061  -1.11519
 Alpha  occ. eigenvalues --   -1.05762  -1.00847  -1.00347  -0.98427  -0.97096
 Alpha  occ. eigenvalues --   -0.96203  -0.93831  -0.93126  -0.91993  -0.91221
 Alpha  occ. eigenvalues --   -0.88438  -0.88382  -0.87817  -0.87536  -0.87423
 Alpha  occ. eigenvalues --   -0.87284  -0.86751  -0.85045  -0.83580  -0.82851
 Alpha  occ. eigenvalues --   -0.82462  -0.80981  -0.80333  -0.79046  -0.78582
 Alpha  occ. eigenvalues --   -0.78248  -0.77111  -0.76992  -0.76716  -0.76549
 Alpha  occ. eigenvalues --   -0.75984  -0.74529  -0.73449  -0.72537  -0.72368
 Alpha  occ. eigenvalues --   -0.71965  -0.71455  -0.70742  -0.69710  -0.68860
 Alpha  occ. eigenvalues --   -0.68529  -0.68356  -0.68061  -0.67823  -0.66170
 Alpha  occ. eigenvalues --   -0.65916  -0.65674  -0.65328  -0.65168  -0.64902
 Alpha  occ. eigenvalues --   -0.64672  -0.63627  -0.63239  -0.62986  -0.62237
 Alpha  occ. eigenvalues --   -0.62005  -0.61744  -0.59944  -0.59373  -0.58931
 Alpha  occ. eigenvalues --   -0.58598  -0.58422  -0.58222  -0.57835  -0.57488
 Alpha  occ. eigenvalues --   -0.57402  -0.57213  -0.56903  -0.56315  -0.56070
 Alpha  occ. eigenvalues --   -0.55823  -0.55529  -0.55127  -0.55016  -0.54721
 Alpha  occ. eigenvalues --   -0.54100  -0.53645  -0.53552  -0.53448  -0.52859
 Alpha  occ. eigenvalues --   -0.52694  -0.52631  -0.52242  -0.52090  -0.51928
 Alpha  occ. eigenvalues --   -0.51426  -0.51216  -0.50774  -0.50600  -0.50308
 Alpha  occ. eigenvalues --   -0.49768  -0.49535  -0.49399  -0.48979  -0.48853
 Alpha  occ. eigenvalues --   -0.48779  -0.48383  -0.48317  -0.48235  -0.47569
 Alpha  occ. eigenvalues --   -0.47381  -0.47227  -0.47015  -0.46796  -0.46627
 Alpha  occ. eigenvalues --   -0.46525  -0.46396  -0.46337  -0.46123  -0.45969
 Alpha  occ. eigenvalues --   -0.45832  -0.45783  -0.45582  -0.45424  -0.45264
 Alpha  occ. eigenvalues --   -0.45212  -0.44904  -0.44577  -0.44418  -0.44076
 Alpha  occ. eigenvalues --   -0.43811  -0.43184  -0.42809  -0.42579  -0.42500
 Alpha  occ. eigenvalues --   -0.42303  -0.42077  -0.41900  -0.41277  -0.41076
 Alpha  occ. eigenvalues --   -0.40988  -0.40620  -0.40506  -0.39976  -0.39809
 Alpha  occ. eigenvalues --   -0.39606  -0.39391  -0.39222  -0.38674  -0.38423
 Alpha  occ. eigenvalues --   -0.38104  -0.37986  -0.37783  -0.37421  -0.37244
 Alpha  occ. eigenvalues --   -0.36856  -0.36419  -0.35348  -0.33725  -0.31193
 Alpha  occ. eigenvalues --   -0.31004  -0.30723  -0.30677  -0.29305  -0.28611
 Alpha  occ. eigenvalues --   -0.27861  -0.27568  -0.26840  -0.26506
 Alpha virt. eigenvalues --   -0.05241   0.00507   0.00661   0.01096   0.01442
 Alpha virt. eigenvalues --    0.01592   0.02143   0.03763   0.04198   0.04665
 Alpha virt. eigenvalues --    0.05514   0.06691   0.07980   0.09282   0.10201

 Mulliken charges:
               1
     1  O   -0.553052
     2  N   -0.620775
     3  O   -0.603980
     4  O   -0.614211
     5  C   -0.342009
     6  N    0.386929
     7  C    0.175579
     8  C    0.569030
     9  C    0.022198
    10  C   -0.009406
    11  C    0.633000
    12  C   -0.156834
    13  C   -0.115996
    14  C   -0.144079
    15  C    0.371946
    16  O   -0.396359
    17  O   -0.367224
    18  H    0.357571
    19  H    0.347881
    20  H    0.413477
    21  H    0.142599
    22  H    0.143690
    23  H    0.129472
    24  H    0.148038
    25  H    0.166463
    26  O   -0.600466
    27  O   -0.615566
    28  C   -0.406209
    29  O   -0.616952
    30  C   -0.390265
    31  C   -0.408548
    32  O   -0.615978
    33  C   -0.398658
    34  C   -0.414637
    35  C   -0.392628
    36  C   -0.181304
    37  C    0.136999
    38  C   -0.143029
    39  C   -0.185915
    40  C    0.090938
    41  C    0.139992
    42  C   -0.037746
    43  C    0.200716
    44  C   -0.152104
    45  C    0.075790
    46  C   -0.211030
    47  C    0.092666
    48  C    0.026939
    49  C   -0.154483
    50  C   -0.000953
    51  C    0.203716
    52  C   -0.266173
    53  C    0.009409
    54  C   -0.144769
    55  C   -0.055825
    56  C    0.024795
    57  C   -0.198249
    58  C   -0.143903
    59  C    0.104794
    60  C   -0.199604
    61  C    0.088754
    62  C    0.100283
    63  C   -0.207957
    64  C   -0.266473
    65  P    1.317047
    66  H    0.383356
    67  H    0.133809
    68  H    0.122890
    69  H    0.138407
    70  H    0.127964
    71  H    0.125053
    72  H    0.147809
    73  H    0.134958
    74  H    0.142893
    75  H    0.131501
    76  H    0.152964
    77  H    0.125237
    78  H    0.132775
    79  H    0.124397
    80  H    0.134457
    81  H    0.159813
    82  H    0.121919
    83  H    0.142027
    84  H    0.112381
    85  H    0.082228
    86  H    0.126723
    87  H    0.105056
    88  H    0.138060
    89  H    0.119213
    90  H    0.131182
    91  H    0.139838
    92  H    0.136982
    93  H    0.124540
    94  H    0.102571
    95  H    0.130241
    96  H    0.101369
    97  H    0.118292
    98  H    0.134868
    99  H    0.143435
   100  H    0.135770
   101  H    0.177968
   102  O   -0.542535
   103  C   -0.030952
   104  H    0.179179
   105  H    0.160083
   106  C    0.517286
   107  C    0.808534
   108  F   -0.285506
   109  F   -0.270501
   110  F   -0.245846
   111  F   -0.262481
   112  F   -0.257566
 Sum of Mulliken charges =  -0.00000

 Dipole moment (field-independent basis, Debye):
    X=              7.5206    Y=              1.4451    Z=             -2.6134  Tot=              8.0919
 Quadrupole moment (field-independent basis, Debye-Ang):
   XX=           -396.8788   YY=           -365.9856   ZZ=           -380.8658
   XY=            -17.8619   XZ=              7.2166   YZ=              8.0598

  Exact polarizability:       0.000       0.000       0.000       0.000       0.000       0.000
 Approx polarizability:     743.749     -20.603     761.924     -37.529     -55.320     597.140

 Normal termination of Gaussian 16 at Wed Nov 16 12:39:57 2022.
