 Gaussian 16, Revision C.01,

 ------------------------------------------------------------
 #p irc=(calcfc,maxpoints=30,lqa,stepsize=8) 6-31g(d,p) m062x
 ------------------------------------------------------------

 -----
 TITLE
 -----
 Symbolic Z-matrix:
 Charge =  0 Multiplicity = 1

 SCF Done:  E(RM062X) =  -3557.97797704     A.U. after   15 cycles
 SCF Done:  E(RM062X) =  -3557.97811779     A.U. after   12 cycles
 SCF Done:  E(RM062X) =  -3557.97846014     A.U. after   12 cycles
 SCF Done:  E(RM062X) =  -3557.97885887     A.U. after   12 cycles
 SCF Done:  E(RM062X) =  -3557.97924657     A.U. after   11 cycles
 SCF Done:  E(RM062X) =  -3557.97961544     A.U. after   11 cycles
 SCF Done:  E(RM062X) =  -3557.97996481     A.U. after   11 cycles
 SCF Done:  E(RM062X) =  -3557.98030406     A.U. after   11 cycles
 SCF Done:  E(RM062X) =  -3557.98064929     A.U. after   11 cycles
 SCF Done:  E(RM062X) =  -3557.98103319     A.U. after   12 cycles
 Normal termination of Gaussian 16 at Wed Nov 16 07:30:03 2022.
 Gaussian 16:  ES64L-G16RevC.01  3-Jul-2019

 ----------------------------------------------------------------------
 #p irc=(restart,maxpoints=60,lqa,stepsize=15) 6-31g(d,p) m062x geom=al
 lcheck guess=read
 ----------------------------------------------------------------------

 SCF Done:  E(RM062X) =  -3557.98679294     A.U. after    9 cycles
 SCF Done:  E(RM062X) =  -3557.98686331     A.U. after    9 cycles
 SCF Done:  E(RM062X) =  -3557.98693233     A.U. after    9 cycles
 SCF Done:  E(RM062X) =  -3557.98700000     A.U. after   10 cycles
 SCF Done:  E(RM062X) =  -3557.98706626     A.U. after    9 cycles
 SCF Done:  E(RM062X) =  -3557.98713113     A.U. after    9 cycles
 SCF Done:  E(RM062X) =  -3557.98719451     A.U. after    9 cycles
 SCF Done:  E(RM062X) =  -3557.98725644     A.U. after   10 cycles
 SCF Done:  E(RM062X) =  -3557.98731677     A.U. after    9 cycles
 SCF Done:  E(RM062X) =  -3557.98737584     A.U. after   10 cycles

                          Input orientation:
 ---------------------------------------------------------------------
 Center     Atomic      Atomic             Coordinates (Angstroms)
 Number     Number       Type             X           Y           Z
 ---------------------------------------------------------------------
      1          8           0       -0.816171    5.311068    2.439588
      2          7           0       -1.975281    2.576626    0.278325
      3          8           0       -2.812792    4.354732    2.498335
      4          8           0       -4.147456    2.988999    0.939196
      5          6           0       -0.373404    4.369310   -0.201185
      6          7           0       -5.341445   -2.262859   -2.384427
      7          6           0       -4.743574   -1.086171   -1.741031
      8          6           0       -1.704314    4.448001    1.979496
      9          6           0       -3.767299    1.144716   -0.460297
     10          6           0       -1.121939    3.603901    0.895271
     11          6           0       -3.250875    2.305912    0.301745
     12          6           0       -5.086239    1.151032   -0.919579
     13          6           0       -3.409659   -1.094329   -1.300411
     14          6           0       -2.939047    0.047139   -0.647538
     15          6           0       -5.561663    0.026238   -1.574857
     16          8           0       -4.923088   -3.354564   -2.061597
     17          8           0       -6.243026   -2.055278   -3.178621
     18          1           0       -1.211007    5.773529    3.196870
     19          1           0       -1.338650    1.915248   -0.238830
     20          1           0       -3.708431    3.613824    1.624959
     21          1           0        0.130203    3.644448   -0.848282
     22          1           0       -1.050164    4.978166   -0.805602
     23          1           0        0.386696    5.006347    0.250871
     24          1           0       -5.722027    2.011792   -0.752892
     25          1           0       -1.931247    0.052790   -0.250306
     26          8           0        0.570259    1.603367    1.824655
     27          8           0        2.474459    1.070833    0.347797
     28          6           0        1.257898    5.937277   -3.460947
     29          8           0        0.844691   -0.806627    0.917795
     30          6           0        4.471691    3.166237   -0.758862
     31          6           0       -5.164199   -0.284538    2.204877
     32          8           0        0.049396    0.986406   -0.643440
     33          6           0       -0.902381    1.333069    4.318364
     34          6           0       -1.071230   -3.197541    2.002794
     35          6           0        1.049069    0.915027   -3.752946
     36          6           0        1.228958    3.413341   -3.562426
     37          6           0        3.721113   -0.906603   -0.115382
     38          6           0        4.513285   -1.332471   -2.362178
     39          6           0        2.826003    4.471440   -2.132393
     40          6           0        1.775382    4.584753   -3.040764
     41          6           0        2.722472   -1.309067    2.320706
     42          6           0        2.768608    2.060355   -2.285270
     43          6           0        3.162135    0.287006   -0.553024
     44          6           0        3.823093   -1.480173    1.286761
     45          6           0        3.333848    3.230316   -1.746411
     46          6           0        5.031180   -0.908722    2.080572
     47          6           0        1.706438    2.153079   -3.200829
     48          6           0        4.369325   -1.729491   -1.037055
     49          6           0        3.998502   -0.101171   -2.763699
     50          6           0        0.496076   -1.096542    3.280268
     51          6           0        1.359177   -1.114268    2.172330
     52          6           0        4.775318   -1.356860    3.534973
     53          6           0        3.305233    0.727303   -1.873667
     54          6           0        2.439023   -1.340802    4.726112
     55          6           0       -0.968254   -0.889866    3.065936
     56          6           0        3.263727   -1.362034    3.610503
     57          6           0       -3.055903   -1.668672    2.118212
     58          6           0        1.057171   -1.241628    4.549645
     59          6           0       -1.706184   -1.883527    2.389687
     60          6           0       -2.961258    0.469846    3.183949
     61          6           0       -1.609438    0.284160    3.496326
     62          6           0       -3.701013   -0.490994    2.500318
     63          6           0        4.081437   -2.986075    0.975690
     64          6           0        4.835696   -3.002396   -0.368882
     65         15           0        0.886478    0.808863    0.603023
     66          1           0       -0.362046    3.000248    1.446578
     67          1           0        0.211737    5.881436   -3.773151
     68          1           0        1.334693    6.661682   -2.645439
     69          1           0        1.831874    6.333128   -4.305363
     70          1           0        4.931645    4.149407   -0.636837
     71          1           0        5.241550    2.462103   -1.086761
     72          1           0        4.113601    2.828950    0.218799
     73          1           0       -5.455255   -0.803905    1.286792
     74          1           0       -5.784927   -0.676275    3.017552
     75          1           0       -5.399335    0.777297    2.086994
     76          1           0       -0.973714    1.092413    5.385282
     77          1           0        0.147026    1.417158    4.041600
     78          1           0       -1.381888    2.307137    4.175674
     79          1           0       -0.771448   -3.754250    2.896600
     80          1           0       -0.170438   -3.062526    1.399705
     81          1           0       -1.771017   -3.812629    1.431554
     82          1           0        1.733579    0.323056   -4.366998
     83          1           0        0.716187    0.284101   -2.925689
     84          1           0        0.185250    1.179584   -4.367176
     85          1           0        0.400947    3.479001   -4.265443
     86          1           0        5.023340   -1.970759   -3.077549
     87          1           0        3.267880    5.373418   -1.713133
     88          1           0        5.005232    0.184580    2.019759
     89          1           0        5.987569   -1.254487    1.676459
     90          1           0        4.128095    0.233896   -3.788992
     91          1           0        5.223067   -0.682917    4.270368
     92          1           0        5.185540   -2.356753    3.721731
     93          1           0        2.859915   -1.380205    5.726428
     94          1           0       -3.617273   -2.437873    1.589578
     95          1           0        0.398336   -1.228008    5.413254
     96          1           0       -3.449537    1.391347    3.500645
     97          1           0        4.634326   -3.475751    1.782133
     98          1           0        3.124374   -3.498308    0.869356
     99          1           0        4.606061   -3.890648   -0.965007
    100          1           0        5.922569   -2.984564   -0.220978
    101          1           0       -6.570990   -0.022870   -1.964663
    102          8           0       -2.621678   -2.155997   -1.526480
    103          6           0       -1.235675   -1.948610   -1.298260
    104          1           0       -0.878897   -1.038876   -1.793590
    105          1           0       -1.005122   -1.868947   -0.230096
    106          6           0       -0.524771   -3.145834   -1.881346
    107          6           0        0.996611   -3.041287   -1.706621
    108          9           0       -0.927539   -4.287724   -1.285791
    109          9           0       -0.773235   -3.245801   -3.203767
    110          9           0        1.620075   -3.977043   -2.414637
    111          9           0        1.417204   -1.842269   -2.108806
    112          9           0        1.317775   -3.200646   -0.420715
 ---------------------------------------------------------------------

 Alpha  occ. eigenvalues --  -78.17638 -25.30008 -25.29767 -25.29644 -25.27765
 Alpha  occ. eigenvalues --  -25.27719 -19.74437 -19.72055 -19.70651 -19.70551
 Alpha  occ. eigenvalues --  -19.67859 -19.67592 -19.66455 -19.66039 -19.60096
 Alpha  occ. eigenvalues --  -19.58208 -15.01541 -14.85308 -10.80977 -10.75400
 Alpha  occ. eigenvalues --  -10.73612 -10.73455 -10.66225 -10.63293 -10.63185
 Alpha  occ. eigenvalues --  -10.62389 -10.61241 -10.60296 -10.60238 -10.59690
 Alpha  occ. eigenvalues --  -10.59202 -10.58945 -10.56609 -10.56431 -10.55311
 Alpha  occ. eigenvalues --  -10.55261 -10.55245 -10.55115 -10.54983 -10.54853
 Alpha  occ. eigenvalues --  -10.54783 -10.54752 -10.54743 -10.54725 -10.54677
 Alpha  occ. eigenvalues --  -10.54643 -10.54620 -10.54594 -10.54584 -10.54484
 Alpha  occ. eigenvalues --  -10.54428 -10.54285 -10.54255 -10.54235 -10.54187
 Alpha  occ. eigenvalues --  -10.54139 -10.54122 -10.53916 -10.53843 -10.53672
 Alpha  occ. eigenvalues --  -10.53263 -10.53234 -10.53059 -10.52631 -10.52558
 Alpha  occ. eigenvalues --  -10.52343  -6.95699  -5.07540  -5.07442  -5.07313
 Alpha  occ. eigenvalues --   -1.47265  -1.41305  -1.37860  -1.37641  -1.36880
 Alpha  occ. eigenvalues --   -1.35065  -1.30407  -1.26397  -1.23228  -1.20657
 Alpha  occ. eigenvalues --   -1.20124  -1.18179  -1.15810  -1.11140  -1.08863
 Alpha  occ. eigenvalues --   -1.04919  -1.01515  -0.98734  -0.96814  -0.96229
 Alpha  occ. eigenvalues --   -0.95238  -0.95004  -0.92369  -0.92195  -0.91517
 Alpha  occ. eigenvalues --   -0.89757  -0.88122  -0.87621  -0.87133  -0.86701
 Alpha  occ. eigenvalues --   -0.86628  -0.84521  -0.84033  -0.83275  -0.82732
 Alpha  occ. eigenvalues --   -0.81416  -0.81091  -0.80466  -0.78442  -0.78234
 Alpha  occ. eigenvalues --   -0.78100  -0.77383  -0.76506  -0.75947  -0.75706
 Alpha  occ. eigenvalues --   -0.75567  -0.75351  -0.73924  -0.71984  -0.71391
 Alpha  occ. eigenvalues --   -0.71257  -0.70645  -0.70391  -0.69989  -0.69830
 Alpha  occ. eigenvalues --   -0.69517  -0.68936  -0.66521  -0.66437  -0.66354
 Alpha  occ. eigenvalues --   -0.65882  -0.65069  -0.64807  -0.64461  -0.64026
 Alpha  occ. eigenvalues --   -0.63742  -0.63536  -0.62850  -0.62605  -0.62324
 Alpha  occ. eigenvalues --   -0.61548  -0.60584  -0.60532  -0.60218  -0.60075
 Alpha  occ. eigenvalues --   -0.58413  -0.58060  -0.57536  -0.57219  -0.57071
 Alpha  occ. eigenvalues --   -0.56927  -0.56548  -0.56372  -0.56210  -0.55852
 Alpha  occ. eigenvalues --   -0.55808  -0.55003  -0.54597  -0.54431  -0.54211
 Alpha  occ. eigenvalues --   -0.54115  -0.53912  -0.53356  -0.53092  -0.52781
 Alpha  occ. eigenvalues --   -0.52342  -0.52204  -0.52078  -0.51780  -0.51411
 Alpha  occ. eigenvalues --   -0.50938  -0.50904  -0.50352  -0.50157  -0.50039
 Alpha  occ. eigenvalues --   -0.49706  -0.49298  -0.49187  -0.48751  -0.48502
 Alpha  occ. eigenvalues --   -0.48426  -0.48214  -0.47910  -0.47569  -0.47147
 Alpha  occ. eigenvalues --   -0.47009  -0.46818  -0.46531  -0.46351  -0.46217
 Alpha  occ. eigenvalues --   -0.46142  -0.46127  -0.45768  -0.45602  -0.45526
 Alpha  occ. eigenvalues --   -0.45358  -0.45328  -0.45055  -0.45015  -0.44838
 Alpha  occ. eigenvalues --   -0.44582  -0.44129  -0.43991  -0.43386  -0.42491
 Alpha  occ. eigenvalues --   -0.42354  -0.42096  -0.41850  -0.41751  -0.41413
 Alpha  occ. eigenvalues --   -0.41321  -0.40934  -0.40705  -0.40340  -0.40301
 Alpha  occ. eigenvalues --   -0.40102  -0.39424  -0.39250  -0.38946  -0.38813
 Alpha  occ. eigenvalues --   -0.38503  -0.38417  -0.38233  -0.37955  -0.37720
 Alpha  occ. eigenvalues --   -0.37683  -0.37517  -0.37261  -0.37185  -0.36744
 Alpha  occ. eigenvalues --   -0.36333  -0.35545  -0.34792  -0.34439  -0.32736
 Alpha  occ. eigenvalues --   -0.31434  -0.29196  -0.29038  -0.28737  -0.28053
 Alpha  occ. eigenvalues --   -0.27655  -0.27179  -0.26432  -0.26246
 Alpha virt. eigenvalues --   -0.06740  -0.00809   0.00017   0.00310   0.02076
 Alpha virt. eigenvalues --    0.02477   0.03471   0.03750   0.04338   0.04968
 Alpha virt. eigenvalues --    0.05164   0.05684   0.05859   0.07983   0.09672

 Mulliken charges:
               1
     1  O   -0.479644
     2  N   -0.568232
     3  O   -0.563995
     4  O   -0.553713
     5  C   -0.341612
     6  N    0.391770
     7  C    0.182374
     8  C    0.655176
     9  C    0.014361
    10  C   -0.102285
    11  C    0.607996
    12  C   -0.127807
    13  C    0.366759
    14  C   -0.115263
    15  C   -0.119171
    16  O   -0.366342
    17  O   -0.400107
    18  H    0.371057
    19  H    0.389144
    20  H    0.441753
    21  H    0.180482
    22  H    0.130155
    23  H    0.163741
    24  H    0.162805
    25  H    0.160784
    26  O   -0.660997
    27  O   -0.630134
    28  C   -0.405495
    29  O   -0.675805
    30  C   -0.410352
    31  C   -0.391350
    32  O   -0.719949
    33  C   -0.389249
    34  C   -0.398349
    35  C   -0.395689
    36  C   -0.208319
    37  C    0.131783
    38  C   -0.148252
    39  C   -0.202417
    40  C    0.091709
    41  C    0.123564
    42  C   -0.049540
    43  C    0.234432
    44  C   -0.136947
    45  C    0.105540
    46  C   -0.208651
    47  C    0.116595
    48  C    0.015296
    49  C   -0.147228
    50  C    0.010922
    51  C    0.225028
    52  C   -0.268101
    53  C   -0.016100
    54  C   -0.152360
    55  C   -0.056318
    56  C    0.038811
    57  C   -0.208732
    58  C   -0.148357
    59  C    0.074229
    60  C   -0.216527
    61  C    0.122685
    62  C    0.089592
    63  C   -0.216897
    64  C   -0.266794
    65  P    1.317398
    66  H    0.297897
    67  H    0.122661
    68  H    0.122822
    69  H    0.147634
    70  H    0.115728
    71  H    0.135520
    72  H    0.165973
    73  H    0.113815
    74  H    0.149599
    75  H    0.118946
    76  H    0.126605
    77  H    0.179538
    78  H    0.087203
    79  H    0.144580
    80  H    0.124797
    81  H    0.133073
    82  H    0.127810
    83  H    0.153932
    84  H    0.112320
    85  H    0.094703
    86  H    0.116758
    87  H    0.094653
    88  H    0.137288
    89  H    0.111864
    90  H    0.122426
    91  H    0.134211
    92  H    0.131667
    93  H    0.114944
    94  H    0.110760
    95  H    0.119201
    96  H    0.089186
    97  H    0.110730
    98  H    0.132754
    99  H    0.135127
   100  H    0.132583
   101  H    0.183775
   102  O   -0.534523
   103  C   -0.017149
   104  H    0.176042
   105  H    0.158888
   106  C    0.514397
   107  C    0.814270
   108  F   -0.282347
   109  F   -0.285332
   110  F   -0.259802
   111  F   -0.243494
   112  F   -0.242892
 Sum of Mulliken charges =  -0.00000

 Dipole moment (field-independent basis, Debye):
    X=              0.0063    Y=              8.3061    Z=              3.8026  Tot=              9.1352
 Quadrupole moment (field-independent basis, Debye-Ang):
   XX=           -378.9017   YY=           -359.9688   ZZ=           -382.3931
   XY=            -37.9708   XZ=             -8.7240   YZ=             -0.8395

  Exact polarizability:       0.000       0.000       0.000       0.000       0.000       0.000
 Approx polarizability:     736.379     -59.758     709.971      63.946      43.928     646.005

 Normal termination of Gaussian 16 at Wed Nov 16 14:00:24 2022.
