 Gaussian 16, Revision C.01,
 Gaussian 16:  ES64L-G16RevC.01  3-Jul-2019

 ----------------------------------------------------------------------
 #p irc=(ReadCartesianFC,stepsize=5,lqa,maxpoints=50) b3lyp/6-31g(d) em
 =gd3bj geom=allcheck guess=read
 ----------------------------------------------------------------------

 Structure from the checkpoint file:  "fine_irc_DA.chk"
 -------------------
 Title Card Required
 -------------------
 Charge =  0 Multiplicity = 1

 SCF Done:  E(RB3LYP) =  -234.569422293     A.U. after   10 cycles
 SCF Done:  E(RB3LYP) =  -234.569701716     A.U. after   11 cycles
 SCF Done:  E(RB3LYP) =  -234.570131163     A.U. after   11 cycles
 SCF Done:  E(RB3LYP) =  -234.570685092     A.U. after   11 cycles
 SCF Done:  E(RB3LYP) =  -234.571339691     A.U. after   11 cycles
 SCF Done:  E(RB3LYP) =  -234.572073249     A.U. after   11 cycles
 SCF Done:  E(RB3LYP) =  -234.572866440     A.U. after   11 cycles
 SCF Done:  E(RB3LYP) =  -234.573702395     A.U. after   11 cycles
 SCF Done:  E(RB3LYP) =  -234.574566623     A.U. after   11 cycles
 SCF Done:  E(RB3LYP) =  -234.575446840     A.U. after   11 cycles
 SCF Done:  E(RB3LYP) =  -234.662439366     A.U. after   10 cycles
 SCF Done:  E(RB3LYP) =  -234.662413635     A.U. after   10 cycles
 SCF Done:  E(RB3LYP) =  -234.662497624     A.U. after   10 cycles
 SCF Done:  E(RB3LYP) =  -234.662481798     A.U. after   10 cycles
 SCF Done:  E(RB3LYP) =  -234.662511412     A.U. after   10 cycles
 SCF Done:  E(RB3LYP) =  -234.662394260     A.U. after   10 cycles
 SCF Done:  E(RB3LYP) =  -234.662418534     A.U. after   10 cycles
 SCF Done:  E(RB3LYP) =  -234.662199443     A.U. after   10 cycles
 SCF Done:  E(RB3LYP) =  -234.662449750     A.U. after   10 cycles
 SCF Done:  E(RB3LYP) =  -234.662399706     A.U. after   10 cycles

                          Input orientation:
 ---------------------------------------------------------------------
 Center     Atomic      Atomic             Coordinates (Angstroms)
 Number     Number       Type             X           Y           Z
 ---------------------------------------------------------------------
      1          6           0       -1.234349    0.815883   -0.070362
      2          1           0       -1.473141    1.178190   -1.076987
      3          1           0       -2.000910    1.228855    0.595065
      4          6           0       -1.277619   -0.737158   -0.062612
      5          1           0       -2.075623   -1.090205    0.603614
      6          1           0       -1.544327   -1.087212   -1.067635
      7          6           0        0.150132    1.399330    0.337377
      8          1           0        0.189074    2.461740    0.072523
      9          1           0        0.252849    1.350437    1.437108
     10          6           0        1.274338    0.626172   -0.299000
     11          1           0        2.098819    1.166342   -0.754753
     12          6           0        1.232219   -0.709086   -0.294784
     13          1           0        2.030712   -1.304948   -0.740692
     14          6           0        0.051907   -1.402266    0.340024
     15          1           0        0.032375   -2.467949    0.087565
     16          1           0        0.148965   -1.350407    1.431887
 ---------------------------------------------------------------------

 Alpha  occ. eigenvalues --  -10.17996 -10.17866 -10.17767 -10.17692 -10.17292
 Alpha  occ. eigenvalues --  -10.17182  -0.82226  -0.73128  -0.72955  -0.61413
 Alpha  occ. eigenvalues --   -0.58679  -0.49520  -0.48687  -0.46526  -0.39666
 Alpha  occ. eigenvalues --   -0.39495  -0.39088  -0.37145  -0.37033  -0.31801
 Alpha  occ. eigenvalues --   -0.31236  -0.29660  -0.23364
 Alpha virt. eigenvalues --    0.02903   0.08790   0.11404   0.13056   0.14802
 Alpha virt. eigenvalues --    0.15038   0.16927   0.18696   0.19118   0.20919
 Alpha virt. eigenvalues --    0.21426   0.23523   0.24810   0.25160   0.31206

 Mulliken charges:
               1
     1  C   -0.259305
     2  H    0.139267
     3  H    0.130883
     4  C   -0.258933
     5  H    0.130271
     6  H    0.138360
     7  C   -0.305918
     8  H    0.134922
     9  H    0.144795
    10  C   -0.106450
    11  H    0.121461
    12  C   -0.107984
    13  H    0.121154
    14  C   -0.303865
    15  H    0.135217
    16  H    0.146126
 Sum of Mulliken charges =  -0.00000

 Dipole moment (field-independent basis, Debye):
    X=             -0.2277    Y=              0.0101    Z=              0.0907  Tot=              0.2453
 Quadrupole moment (field-independent basis, Debye-Ang):
   XX=            -38.2505   YY=            -36.7702   ZZ=            -38.3076
   XY=              0.0229   XZ=             -0.8322   YZ=              0.0045

  Exact polarizability:       0.000       0.000       0.000       0.000       0.000       0.000
 Approx polarizability:      76.037       0.716     101.447      -6.439       0.218      69.441

 Normal termination of Gaussian 16 at Thu Nov 10 13:05:32 2022.
