 Gaussian 16, Revision C.01,

 -------------------------------------------------------
 # irc=(calcfc,maxpoints=30,stepsize=5) 6-31g(d,p) m062x
 -------------------------------------------------------

 ---------------------
 N1_S_PA1_ts2_opts.out
 ---------------------
 Symbolic Z-matrix:
 Charge =  0 Multiplicity = 1

 SCF Done:  E(RM062X) =  -3557.94689252     A.U. after   16 cycles
 SCF Done:  E(RM062X) =  -3557.94698154     A.U. after   11 cycles
 SCF Done:  E(RM062X) =  -3557.94721917     A.U. after   11 cycles
 SCF Done:  E(RM062X) =  -3557.94755602     A.U. after   11 cycles
 SCF Done:  E(RM062X) =  -3557.94794114     A.U. after   11 cycles
 SCF Done:  E(RM062X) =  -3557.94833406     A.U. after   11 cycles
 SCF Done:  E(RM062X) =  -3557.94871387     A.U. after   11 cycles
 SCF Done:  E(RM062X) =  -3557.94907566     A.U. after   11 cycles
 SCF Done:  E(RM062X) =  -3557.94942114     A.U. after   11 cycles
 SCF Done:  E(RM062X) =  -3557.94975285     A.U. after   11 cycles
 Normal termination of Gaussian 16 at Sat Nov 12 07:15:45 2022.
 Gaussian 16:  ES64L-G16RevC.01  3-Jul-2019

 ----------------------------------------------------------------------
 # irc=(restart,maxpoints=60,stepsize=20) geom=allcheck guess=read 6-31
 g(d,p) m062x
 ----------------------------------------------------------------------

 SCF Done:  E(RM062X) =  -3557.97482913     A.U. after    9 cycles
 SCF Done:  E(RM062X) =  -3557.97497757     A.U. after    9 cycles
 SCF Done:  E(RM062X) =  -3557.97512201     A.U. after    9 cycles
 SCF Done:  E(RM062X) =  -3557.97526261     A.U. after    9 cycles
 SCF Done:  E(RM062X) =  -3557.97539953     A.U. after    9 cycles
 SCF Done:  E(RM062X) =  -3557.97553292     A.U. after    9 cycles
 SCF Done:  E(RM062X) =  -3557.97566291     A.U. after    9 cycles
 SCF Done:  E(RM062X) =  -3557.97578966     A.U. after    9 cycles
 SCF Done:  E(RM062X) =  -3557.97591330     A.U. after    9 cycles
 SCF Done:  E(RM062X) =  -3557.97603396     A.U. after    9 cycles

                          Input orientation:
 ---------------------------------------------------------------------
 Center     Atomic      Atomic             Coordinates (Angstroms)
 Number     Number       Type             X           Y           Z
 ---------------------------------------------------------------------
      1          8           0       -2.230555    2.403667    2.702748
      2          7           0        1.116556    2.381215    1.356590
      3          8           0       -0.214984    2.369238    3.618893
      4          8           0        1.402047    1.003656   -0.431504
      5          6           0       -0.910232    3.170687    0.144887
      6          7           0        7.507311    1.512581    1.474128
      7          6           0        6.064040    1.515331    1.219694
      8          6           0       -1.016852    2.377397    2.558597
      9          6           0        3.343514    1.633017    0.779769
     10          6           0       -0.321893    2.276096    1.238438
     11          6           0        1.868455    1.631892    0.502579
     12          6           0        4.089536    0.599971    0.220906
     13          6           0        5.327016    2.544761    1.789351
     14          6           0        3.963239    2.613260    1.556658
     15          6           0        5.460949    0.526532    0.432284
     16          8           0        8.234501    1.041454    0.620543
     17          8           0        7.881248    2.009652    2.519918
     18          1           0       -0.527303    1.240029    0.930566
     19          1           0        1.508391    2.655712    2.244781
     20          1           0       -0.776339    2.301249    4.408062
     21          1           0       -1.997560    3.079345    0.096803
     22          1           0       -0.646572    4.219706    0.305692
     23          1           0       -0.504102    2.832783   -0.810378
     24          1           0        3.592954   -0.158367   -0.376253
     25          1           0        5.843346    3.278061    2.396668
     26          1           0        3.398996    3.449243    1.954694
     27          1           0       -3.151018    1.842861    1.584196
     28          8           0       -1.502482    0.041377    0.099944
     29          8           0       -3.636754   -0.156149   -1.147764
     30          6           0       -2.197588    5.721000   -2.720548
     31          8           0       -3.547599   -1.050929    1.251988
     32          6           0       -3.771114    1.098279   -3.905275
     33          6           0        1.850754    0.201312    4.441731
     34          8           0       -3.659645    1.372808    0.856751
     35          6           0        0.619705   -2.150112    0.190297
     36          6           0       -2.658281   -2.036793    4.077851
     37          6           0       -5.745989    3.549092    0.101269
     38          6           0       -3.996625    4.561613   -1.377503
     39          6           0       -5.760837   -1.202528   -0.901812
     40          6           0       -7.773659    0.102472   -1.217471
     41          6           0       -3.063582    3.411598   -3.252169
     42          6           0       -3.108004    4.550294   -2.450203
     43          6           0       -4.002802   -3.024184    0.000811
     44          6           0       -4.748822    2.326284   -1.901873
     45          6           0       -5.016507   -0.082225   -1.229646
     46          6           0       -5.344554   -2.636983   -0.604818
     47          6           0       -3.865111    2.299044   -2.997509
     48          6           0       -5.308689   -3.491374   -1.905666
     49          6           0       -4.818659    3.471268   -1.087313
     50          6           0       -7.151644   -1.084215   -0.850109
     51          6           0       -6.996649    1.193754   -1.605568
     52          6           0       -1.971328   -2.890424    1.341577
     53          6           0       -3.178229   -2.343906    0.884095
     54          6           0       -4.580182   -4.785540   -1.500702
     55          6           0       -5.600108    1.137453   -1.591827
     56          6           0       -2.456829   -4.887221    0.027520
     57          6           0       -1.003397   -2.101003    2.159811
     58          6           0       -3.614135   -4.288076   -0.451694
     59          6           0       -0.405543   -0.920418    4.179442
     60          6           0       -1.652598   -4.187167    0.923036
     61          6           0       -1.331351   -1.679155    3.456882
     62          6           0        1.138429   -1.009675    2.355739
     63          6           0        0.243802   -1.761960    1.597991
     64          6           0        0.836111   -0.580220    3.647418
     65          6           0       -6.539199   -3.083317    0.283251
     66          6           0       -7.760108   -2.363850   -0.322823
     67         15           0       -2.958350    0.097650    0.279105
     68          1           0       -2.084944    5.895662   -3.793696
     69          1           0       -2.580994    6.636020   -2.262985
     70          1           0       -1.197535    5.537792   -2.312498
     71          1           0       -3.176377    0.307026   -3.439222
     72          1           0       -3.295415    1.369437   -4.850185
     73          1           0       -4.759824    0.684980   -4.122840
     74          1           0        2.613592   -0.461905    4.862009
     75          1           0        2.368287    0.928266    3.806604
     76          1           0        1.386293    0.740868    5.270969
     77          1           0        0.973470   -3.185185    0.137507
     78          1           0       -0.234836   -2.041909   -0.479354
     79          1           0        1.409228   -1.491546   -0.176809
     80          1           0       -2.903502   -3.087991    3.902905
     81          1           0       -3.465771   -1.437848    3.645372
     82          1           0       -2.641166   -1.862690    5.156117
     83          1           0       -6.765887    3.809113   -0.201236
     84          1           0       -5.788813    2.596702    0.632327
     85          1           0       -5.404347    4.320202    0.796299
     86          1           0       -4.048510    5.441472   -0.739175
     87          1           0       -8.855720    0.188842   -1.187998
     88          1           0       -2.385958    3.385647   -4.103044
     89          1           0       -4.716838   -2.955512   -2.655296
     90          1           0       -6.307898   -3.659152   -2.317159
     91          1           0       -7.474792    2.124308   -1.896620
     92          1           0       -4.073334   -5.268709   -2.340100
     93          1           0       -5.277231   -5.518933   -1.076852
     94          1           0       -2.161941   -5.874132   -0.316105
     95          1           0       -0.658309   -0.607817    5.191699
     96          1           0       -0.727954   -4.628600    1.282843
     97          1           0        2.103878   -0.752485    1.922197
     98          1           0       -6.644679   -4.171317    0.318612
     99          1           0       -6.366384   -2.723147    1.302822
    100          1           0       -8.549286   -2.177573    0.410450
    101          1           0       -8.205823   -2.951665   -1.134473
    102          8           0        6.159894   -0.535882   -0.055194
    103          6           0        6.631192   -0.362692   -1.379283
    104          1           0        5.803142   -0.368023   -2.097659
    105          1           0        7.213040    0.558569   -1.471309
    106          6           0        7.537699   -1.542714   -1.654095
    107          6           0        8.135628   -1.505321   -3.063356
    108          9           0        8.560134   -1.567347   -0.780110
    109          9           0        6.850541   -2.699943   -1.541589
    110          9           0        7.155285   -1.513080   -3.971702
    111          9           0        8.850203   -0.389920   -3.226499
    112          9           0        8.920256   -2.554846   -3.268472
 ---------------------------------------------------------------------

 Alpha  occ. eigenvalues --  -78.20966 -25.30350 -25.30293 -25.30097 -25.28054
 Alpha  occ. eigenvalues --  -25.27886 -19.72761 -19.69361 -19.68764 -19.68583
 Alpha  occ. eigenvalues --  -19.68349 -19.68288 -19.67565 -19.66484 -19.62364
 Alpha  occ. eigenvalues --  -19.60206 -15.02328 -14.79936 -10.81457 -10.73935
 Alpha  occ. eigenvalues --  -10.72554 -10.66886 -10.65605 -10.63390 -10.63358
 Alpha  occ. eigenvalues --  -10.61545 -10.61443 -10.59943 -10.59935 -10.59669
 Alpha  occ. eigenvalues --  -10.59456 -10.58703 -10.57606 -10.55999 -10.55967
 Alpha  occ. eigenvalues --  -10.55777 -10.55745 -10.55677 -10.55670 -10.55434
 Alpha  occ. eigenvalues --  -10.55391 -10.55323 -10.55307 -10.55288 -10.55264
 Alpha  occ. eigenvalues --  -10.55155 -10.55145 -10.55099 -10.55087 -10.55023
 Alpha  occ. eigenvalues --  -10.54932 -10.54896 -10.54833 -10.54665 -10.54654
 Alpha  occ. eigenvalues --  -10.54605 -10.54084 -10.53892 -10.53852 -10.53410
 Alpha  occ. eigenvalues --  -10.53377 -10.53267 -10.53261 -10.52972 -10.52666
 Alpha  occ. eigenvalues --  -10.51741  -6.99091  -5.10888  -5.10846  -5.10732
 Alpha  occ. eigenvalues --   -1.47814  -1.41619  -1.38346  -1.38251  -1.37744
 Alpha  occ. eigenvalues --   -1.35351  -1.27875  -1.23946  -1.22131  -1.19005
 Alpha  occ. eigenvalues --   -1.18238  -1.17937  -1.17549  -1.15489  -1.08927
 Alpha  occ. eigenvalues --   -1.05224  -1.01385  -0.99868  -0.97531  -0.96455
 Alpha  occ. eigenvalues --   -0.95692  -0.93441  -0.93042  -0.92431  -0.90507
 Alpha  occ. eigenvalues --   -0.88738  -0.88011  -0.87915  -0.87151  -0.86928
 Alpha  occ. eigenvalues --   -0.86822  -0.85684  -0.83954  -0.83545  -0.82122
 Alpha  occ. eigenvalues --   -0.81839  -0.81182  -0.79310  -0.78774  -0.78400
 Alpha  occ. eigenvalues --   -0.78263  -0.76277  -0.76196  -0.76125  -0.75718
 Alpha  occ. eigenvalues --   -0.75691  -0.73442  -0.73254  -0.72304  -0.71541
 Alpha  occ. eigenvalues --   -0.70976  -0.70949  -0.70425  -0.69956  -0.69761
 Alpha  occ. eigenvalues --   -0.68399  -0.67870  -0.67499  -0.67077  -0.66233
 Alpha  occ. eigenvalues --   -0.65608  -0.65233  -0.64647  -0.64419  -0.64284
 Alpha  occ. eigenvalues --   -0.64133  -0.63879  -0.63043  -0.62830  -0.61824
 Alpha  occ. eigenvalues --   -0.61413  -0.61366  -0.61202  -0.59844  -0.58822
 Alpha  occ. eigenvalues --   -0.58566  -0.57713  -0.57663  -0.57411  -0.57302
 Alpha  occ. eigenvalues --   -0.57230  -0.56790  -0.56504  -0.55823  -0.55319
 Alpha  occ. eigenvalues --   -0.55179  -0.54871  -0.54634  -0.54348  -0.54299
 Alpha  occ. eigenvalues --   -0.53802  -0.53474  -0.53312  -0.53255  -0.52953
 Alpha  occ. eigenvalues --   -0.52857  -0.52515  -0.52070  -0.51711  -0.51319
 Alpha  occ. eigenvalues --   -0.51099  -0.50914  -0.50657  -0.50282  -0.49984
 Alpha  occ. eigenvalues --   -0.49776  -0.49247  -0.48921  -0.48609  -0.48602
 Alpha  occ. eigenvalues --   -0.48451  -0.48152  -0.48035  -0.47705  -0.47451
 Alpha  occ. eigenvalues --   -0.47036  -0.46661  -0.46582  -0.46393  -0.46046
 Alpha  occ. eigenvalues --   -0.45996  -0.45871  -0.45678  -0.45543  -0.45336
 Alpha  occ. eigenvalues --   -0.45284  -0.45212  -0.44942  -0.44839  -0.44772
 Alpha  occ. eigenvalues --   -0.44592  -0.44504  -0.43727  -0.43504  -0.42998
 Alpha  occ. eigenvalues --   -0.42976  -0.42395  -0.42045  -0.42008  -0.41790
 Alpha  occ. eigenvalues --   -0.41514  -0.41470  -0.41292  -0.41195  -0.40168
 Alpha  occ. eigenvalues --   -0.39982  -0.39706  -0.39623  -0.39110  -0.39037
 Alpha  occ. eigenvalues --   -0.38871  -0.38810  -0.38669  -0.38607  -0.38313
 Alpha  occ. eigenvalues --   -0.37779  -0.37727  -0.37440  -0.37216  -0.37000
 Alpha  occ. eigenvalues --   -0.36470  -0.36087  -0.34739  -0.33863  -0.33688
 Alpha  occ. eigenvalues --   -0.32172  -0.30190  -0.29934  -0.29624  -0.28429
 Alpha  occ. eigenvalues --   -0.27949  -0.27750  -0.26760  -0.26648
 Alpha virt. eigenvalues --   -0.06053  -0.00763   0.00802   0.01606   0.01672
 Alpha virt. eigenvalues --    0.02300   0.02588   0.02988   0.04475   0.04796
 Alpha virt. eigenvalues --    0.05142   0.05468   0.07979   0.09048   0.10073

 Mulliken charges:
               1
     1  O   -0.555103
     2  N   -0.610614
     3  O   -0.510495
     4  O   -0.501271
     5  C   -0.328286
     6  N    0.402328
     7  C    0.204778
     8  C    0.662389
     9  C    0.002495
    10  C   -0.058712
    11  C    0.604091
    12  C   -0.140984
    13  C   -0.115234
    14  C   -0.152796
    15  C    0.327008
    16  O   -0.386929
    17  O   -0.391899
    18  H    0.268236
    19  H    0.295851
    20  H    0.362350
    21  H    0.132779
    22  H    0.115917
    23  H    0.169725
    24  H    0.176726
    25  H    0.182746
    26  H    0.145981
    27  H    0.439236
    28  O   -0.583028
    29  O   -0.612575
    30  C   -0.408654
    31  O   -0.628376
    32  C   -0.412657
    33  C   -0.378122
    34  O   -0.634065
    35  C   -0.383499
    36  C   -0.410197
    37  C   -0.399052
    38  C   -0.205120
    39  C    0.135041
    40  C   -0.147994
    41  C   -0.191845
    42  C    0.101559
    43  C    0.138407
    44  C   -0.056647
    45  C    0.205701
    46  C   -0.142603
    47  C    0.105133
    48  C   -0.212173
    49  C    0.105866
    50  C    0.028222
    51  C   -0.151873
    52  C    0.001487
    53  C    0.209366
    54  C   -0.266108
    55  C    0.003897
    56  C   -0.146625
    57  C   -0.060768
    58  C    0.027573
    59  C   -0.221362
    60  C   -0.148473
    61  C    0.100024
    62  C   -0.184267
    63  C    0.134447
    64  C    0.097086
    65  C   -0.212184
    66  C   -0.267199
    67  P    1.299273
    68  H    0.134291
    69  H    0.126984
    70  H    0.140338
    71  H    0.170106
    72  H    0.121149
    73  H    0.130684
    74  H    0.151365
    75  H    0.098459
    76  H    0.107301
    77  H    0.117573
    78  H    0.161577
    79  H    0.128487
    80  H    0.137327
    81  H    0.159638
    82  H    0.117867
    83  H    0.129029
    84  H    0.154670
    85  H    0.119123
    86  H    0.095805
    87  H    0.119219
    88  H    0.101156
    89  H    0.138802
    90  H    0.115441
    91  H    0.125769
    92  H    0.138051
    93  H    0.133834
    94  H    0.121334
    95  H    0.085762
    96  H    0.128340
    97  H    0.071782
    98  H    0.115611
    99  H    0.138330
   100  H    0.137161
   101  H    0.134171
   102  O   -0.553666
   103  C   -0.004749
   104  H    0.151460
   105  H    0.162965
   106  C    0.514923
   107  C    0.803563
   108  F   -0.275120
   109  F   -0.287834
   110  F   -0.267551
   111  F   -0.263124
   112  F   -0.255335
 Sum of Mulliken charges =  -0.00000

 Dipole moment (field-independent basis, Debye):
    X=             -6.0959    Y=              2.4862    Z=              2.1860  Tot=              6.9368
 Quadrupole moment (field-independent basis, Debye-Ang):
   XX=           -418.5188   YY=           -357.1131   ZZ=           -368.7537
   XY=             23.6953   XZ=             -6.1861   YZ=             13.5736

  Exact polarizability:       0.000       0.000       0.000       0.000       0.000       0.000
 Approx polarizability:     756.080      27.296     684.806      -1.604      94.018     621.223

 Normal termination of Gaussian 16 at Sat Nov 12 12:33:03 2022.
