 Gaussian 16, Revision C.01,

 -------------------------------------------------------
 # irc=(calcfc,maxpoints=30,stepsize=5) 6-31g(d,p) m062x
 -------------------------------------------------------

 ---------------------
 N1_S_PA1_ts2_opts.out
 ---------------------
 Symbolic Z-matrix:
 Charge =  0 Multiplicity = 1

 SCF Done:  E(RM062X) =  -3557.95880190     A.U. after   15 cycles
 SCF Done:  E(RM062X) =  -3557.95886531     A.U. after   11 cycles
 SCF Done:  E(RM062X) =  -3557.95907577     A.U. after   12 cycles
 SCF Done:  E(RM062X) =  -3557.95944826     A.U. after   12 cycles
 SCF Done:  E(RM062X) =  -3557.95998569     A.U. after   12 cycles
 SCF Done:  E(RM062X) =  -3557.96067780     A.U. after   12 cycles
 SCF Done:  E(RM062X) =  -3557.96149876     A.U. after   12 cycles
 SCF Done:  E(RM062X) =  -3557.96240526     A.U. after   12 cycles
 SCF Done:  E(RM062X) =  -3557.96332919     A.U. after   12 cycles
 SCF Done:  E(RM062X) =  -3557.96419710     A.U. after   12 cycles
 Normal termination of Gaussian 16 at Sat Nov 12 07:31:34 2022.
 Gaussian 16:  ES64L-G16RevC.01  3-Jul-2019

 ----------------------------------------------------------------------
 # irc=(restart,maxpoints=60,stepsize=20) geom=allcheck guess=read 6-31
 g(d,p) m062x
 ----------------------------------------------------------------------

 SCF Done:  E(RM062X) =  -3557.96332311     A.U. after    9 cycles
 SCF Done:  E(RM062X) =  -3557.96334618     A.U. after   10 cycles
 SCF Done:  E(RM062X) =  -3557.96336778     A.U. after   10 cycles
 SCF Done:  E(RM062X) =  -3557.96338801     A.U. after   10 cycles
 SCF Done:  E(RM062X) =  -3557.96340685     A.U. after   10 cycles
 SCF Done:  E(RM062X) =  -3557.96342448     A.U. after   10 cycles
 SCF Done:  E(RM062X) =  -3557.96344100     A.U. after   10 cycles
 SCF Done:  E(RM062X) =  -3557.96345642     A.U. after   10 cycles
 SCF Done:  E(RM062X) =  -3557.96347100     A.U. after   10 cycles
 SCF Done:  E(RM062X) =  -3557.96348451     A.U. after   10 cycles

                          Input orientation:
 ---------------------------------------------------------------------
 Center     Atomic      Atomic             Coordinates (Angstroms)
 Number     Number       Type             X           Y           Z
 ---------------------------------------------------------------------
      1          8           0        1.893851    3.129279   -1.558436
      2          7           0       -1.238422    1.905068   -0.027080
      3          8           0        0.675792    4.100068   -0.019977
      4          8           0       -1.843579    4.099588    0.188832
      5          6           0       -0.060293    0.928556   -1.932254
      6          7           0       -7.184969    1.601865    2.572098
      7          6           0       -5.853052    1.863621    2.014227
      8          6           0        0.803325    3.047849   -0.805360
      9          6           0       -3.374958    2.476775    0.955245
     10          6           0       -0.060392    1.978774   -0.848917
     11          6           0       -2.074117    2.892165    0.335286
     12          6           0       -3.938137    3.305609    1.927420
     13          6           0       -5.306063    1.025175    1.039431
     14          6           0       -4.057711    1.346706    0.514236
     15          6           0       -5.170527    2.984590    2.474674
     16          8           0       -7.384311    1.965329    3.714817
     17          8           0       -8.005243    1.066998    1.849337
     18          1           0        2.314293    2.251178   -1.707800
     19          1           0       -1.513933    0.956020    0.212178
     20          1           0       -0.300051    4.263292    0.134477
     21          1           0       -0.996743    0.976289   -2.500526
     22          1           0        0.770774    1.070250   -2.622306
     23          1           0        0.023001   -0.088176   -1.521058
     24          1           0       -3.403130    4.197171    2.233124
     25          1           0       -3.648339    0.705066   -0.260545
     26          1           0       -5.629958    3.589851    3.247034
     27          8           0        1.742899    0.289419    0.680552
     28          8           0        4.178125    0.051192    0.700218
     29          6           0        3.826998    6.167786   -0.286377
     30          8           0        2.819746   -1.634839   -0.630768
     31          6           0        5.846842    2.230140    2.104120
     32          6           0       -3.650771   -1.654451   -1.616565
     33          8           0        2.999948    0.696949   -1.558876
     34          6           0       -0.533978   -1.341510    2.318706
     35          6           0        0.941671   -3.682301   -1.957195
     36          6           0        5.402775    2.236658   -2.969234
     37          6           0        4.735712    4.191052   -1.550744
     38          6           0        5.871953   -1.511757    0.055739
     39          6           0        7.771419   -0.783890   -1.251149
     40          6           0        4.908337    4.179598    0.832612
     41          6           0        4.524128    4.835225   -0.333316
     42          6           0        3.877388   -2.979288    1.057157
     43          6           0        5.614209    2.247819   -0.428128
     44          6           0        5.420038   -0.204043    0.103512
     45          6           0        5.344300   -2.767065    0.721924
     46          6           0        5.450942    2.894484    0.808262
     47          6           0        5.981480   -2.966528    2.127271
     48          6           0        5.265728    2.905995   -1.622884
     49          6           0        7.030450   -1.803621   -0.669248
     50          6           0        7.330510    0.532362   -1.127268
     51          6           0        1.451566   -2.950069    0.848583
     52          6           0        2.721253   -2.533597    0.431295
     53          6           0        5.122304   -4.058515    2.787589
     54          6           0        6.133895    0.851758   -0.475772
     55          6           0        2.519618   -4.239807    2.620066
     56          6           0        0.193888   -2.513880    0.173034
     57          6           0        3.761784   -3.801230    2.183188
     58          6           0       -1.309938   -2.602254   -1.718738
     59          6           0        1.379685   -3.827518    1.936718
     60          6           0       -0.071149   -2.908425   -1.152490
     61          6           0       -2.013512   -1.540707    0.303699
     62          6           0       -0.778235   -1.804599    0.901931
     63          6           0       -2.301601   -1.933764   -1.004267
     64          6           0        5.885472   -3.847174   -0.257452
     65          6           0        7.251978   -3.298803   -0.713516
     66         15           0        2.925778   -0.065418   -0.294338
     67          1           0        1.152866    0.992187    0.285307
     68          1           0        4.115055    6.799772   -1.130451
     69          1           0        2.744464    6.008585   -0.338007
     70          1           0        4.048488    6.703977    0.639607
     71          1           0        5.101685    1.488627    2.409308
     72          1           0        5.931319    2.970830    2.902297
     73          1           0        6.806696    1.713946    2.012053
     74          1           0       -3.958787   -2.460519   -2.287040
     75          1           0       -4.412832   -1.553541   -0.840215
     76          1           0       -3.631629   -0.731793   -2.211885
     77          1           0       -0.700724   -2.146685    3.040945
     78          1           0        0.490605   -0.986200    2.445113
     79          1           0       -1.219235   -0.528327    2.575025
     80          1           0        1.373396   -4.496871   -1.368739
     81          1           0        1.764286   -3.033516   -2.272039
     82          1           0        0.479311   -4.108260   -2.849690
     83          1           0        4.821364    2.779760   -3.718012
     84          1           0        6.442484    2.213383   -3.311546
     85          1           0        5.037454    1.207744   -2.931495
     86          1           0        4.429679    4.685508   -2.469858
     87          1           0        8.676885   -1.006310   -1.807736
     88          1           0        4.769117    4.673322    1.791958
     89          1           0        5.884953   -2.030709    2.687903
     90          1           0        7.043651   -3.218428    2.066134
     91          1           0        7.903470    1.341421   -1.569765
     92          1           0        5.112241   -3.991554    3.878606
     93          1           0        5.481768   -5.061644    2.527753
     94          1           0        2.434701   -4.887262    3.487461
     95          1           0       -1.514489   -2.924067   -2.737370
     96          1           0        0.400215   -4.172801    2.253985
     97          1           0       -2.789340   -1.062591    0.900883
     98          1           0        5.941962   -4.835991    0.206363
     99          1           0        5.207358   -3.910209   -1.115152
    100          1           0        7.536236   -3.647695   -1.709748
    101          1           0        8.051615   -3.599594   -0.025774
    102          8           0       -5.923279   -0.125171    0.641147
    103          6           0       -6.680132    0.009626   -0.548371
    104          1           0       -7.399306    0.828972   -0.466963
    105          1           0       -6.020997    0.162714   -1.412507
    106          6           0       -7.445854   -1.287754   -0.718587
    107          6           0       -8.016388   -1.428443   -2.132600
    108          9           0       -6.637106   -2.350413   -0.513774
    109          9           0       -8.466818   -1.359834    0.153587
    110          9           0       -8.738441   -0.347555   -2.439006
    111          9           0       -7.012574   -1.526239   -3.010341
    112          9           0       -8.782484   -2.504963   -2.232856
 ---------------------------------------------------------------------

 Alpha  occ. eigenvalues --  -78.23223 -25.31320 -25.31305 -25.31067 -25.29413
 Alpha  occ. eigenvalues --  -25.28924 -19.70675 -19.69982 -19.69702 -19.69300
 Alpha  occ. eigenvalues --  -19.69199 -19.68444 -19.65256 -19.65037 -19.64555
 Alpha  occ. eigenvalues --  -19.62904 -15.02907 -14.82472 -10.82435 -10.75063
 Alpha  occ. eigenvalues --  -10.68884 -10.67507 -10.66512 -10.64520 -10.64068
 Alpha  occ. eigenvalues --  -10.62997 -10.62170 -10.60949 -10.60396 -10.60176
 Alpha  occ. eigenvalues --  -10.59521 -10.58312 -10.58133 -10.57375 -10.57154
 Alpha  occ. eigenvalues --  -10.56984 -10.56953 -10.56927 -10.56817 -10.56610
 Alpha  occ. eigenvalues --  -10.56592 -10.56358 -10.56328 -10.56227 -10.56222
 Alpha  occ. eigenvalues --  -10.56131 -10.55941 -10.55847 -10.55833 -10.55712
 Alpha  occ. eigenvalues --  -10.55601 -10.55562 -10.55491 -10.55235 -10.54866
 Alpha  occ. eigenvalues --  -10.54631 -10.54309 -10.54224 -10.54172 -10.53994
 Alpha  occ. eigenvalues --  -10.53667 -10.52720 -10.52436 -10.52284 -10.52231
 Alpha  occ. eigenvalues --  -10.52075  -7.01257  -5.13045  -5.13011  -5.12929
 Alpha  occ. eigenvalues --   -1.48781  -1.42770  -1.39314  -1.39244  -1.38300
 Alpha  occ. eigenvalues --   -1.36483  -1.25258  -1.23252  -1.22115  -1.19587
 Alpha  occ. eigenvalues --   -1.19280  -1.19190  -1.17568  -1.13702  -1.10777
 Alpha  occ. eigenvalues --   -1.06698  -1.02043  -1.00803  -0.98686  -0.97559
 Alpha  occ. eigenvalues --   -0.95648  -0.94114  -0.93721  -0.93395  -0.91216
 Alpha  occ. eigenvalues --   -0.89071  -0.88948  -0.88828  -0.88006  -0.87186
 Alpha  occ. eigenvalues --   -0.86337  -0.86308  -0.84879  -0.84266  -0.83216
 Alpha  occ. eigenvalues --   -0.82147  -0.82033  -0.80167  -0.79990  -0.77714
 Alpha  occ. eigenvalues --   -0.77636  -0.77530  -0.77444  -0.77250  -0.75915
 Alpha  occ. eigenvalues --   -0.75035  -0.74403  -0.74127  -0.73943  -0.72347
 Alpha  occ. eigenvalues --   -0.72142  -0.71836  -0.71409  -0.70850  -0.70124
 Alpha  occ. eigenvalues --   -0.69428  -0.68542  -0.68499  -0.67531  -0.67065
 Alpha  occ. eigenvalues --   -0.66266  -0.66079  -0.65722  -0.64978  -0.64511
 Alpha  occ. eigenvalues --   -0.64343  -0.63753  -0.63656  -0.63552  -0.62825
 Alpha  occ. eigenvalues --   -0.61771  -0.61647  -0.61365  -0.60855  -0.59842
 Alpha  occ. eigenvalues --   -0.58983  -0.58689  -0.58534  -0.58485  -0.58370
 Alpha  occ. eigenvalues --   -0.57793  -0.57312  -0.56837  -0.56363  -0.56055
 Alpha  occ. eigenvalues --   -0.55947  -0.55681  -0.55406  -0.55054  -0.54804
 Alpha  occ. eigenvalues --   -0.54642  -0.54329  -0.54244  -0.54083  -0.53280
 Alpha  occ. eigenvalues --   -0.53060  -0.52935  -0.52618  -0.52295  -0.52108
 Alpha  occ. eigenvalues --   -0.51672  -0.51300  -0.51171  -0.50668  -0.50292
 Alpha  occ. eigenvalues --   -0.50215  -0.49746  -0.49385  -0.49282  -0.49113
 Alpha  occ. eigenvalues --   -0.48787  -0.48389  -0.48305  -0.48014  -0.47846
 Alpha  occ. eigenvalues --   -0.47740  -0.47629  -0.47316  -0.47209  -0.46965
 Alpha  occ. eigenvalues --   -0.46725  -0.46623  -0.46343  -0.46231  -0.45894
 Alpha  occ. eigenvalues --   -0.45792  -0.45681  -0.45559  -0.44990  -0.44872
 Alpha  occ. eigenvalues --   -0.44821  -0.44388  -0.44026  -0.43794  -0.43672
 Alpha  occ. eigenvalues --   -0.43470  -0.43278  -0.42993  -0.42900  -0.42706
 Alpha  occ. eigenvalues --   -0.42406  -0.41931  -0.41060  -0.40891  -0.40839
 Alpha  occ. eigenvalues --   -0.40642  -0.40528  -0.40185  -0.39954  -0.39846
 Alpha  occ. eigenvalues --   -0.39560  -0.39474  -0.39245  -0.39000  -0.38897
 Alpha  occ. eigenvalues --   -0.38820  -0.38288  -0.38158  -0.37674  -0.37195
 Alpha  occ. eigenvalues --   -0.37118  -0.36563  -0.36189  -0.35287  -0.33948
 Alpha  occ. eigenvalues --   -0.31276  -0.31174  -0.30059  -0.29952  -0.29198
 Alpha  occ. eigenvalues --   -0.28400  -0.26949  -0.26084  -0.25883
 Alpha virt. eigenvalues --   -0.06603  -0.01495   0.00033   0.00159   0.01347
 Alpha virt. eigenvalues --    0.01514   0.02170   0.02364   0.03635   0.05685
 Alpha virt. eigenvalues --    0.05914   0.06029   0.07956   0.08745   0.09254

 Mulliken charges:
               1
     1  O   -0.555720
     2  N   -0.584249
     3  O   -0.566884
     4  O   -0.581905
     5  C   -0.349217
     6  N    0.401012
     7  C    0.204714
     8  C    0.577706
     9  C   -0.001395
    10  C   -0.036735
    11  C    0.590738
    12  C   -0.122309
    13  C    0.326343
    14  C   -0.126087
    15  C   -0.114935
    16  O   -0.384697
    17  O   -0.388328
    18  H    0.396505
    19  H    0.287315
    20  H    0.408747
    21  H    0.126746
    22  H    0.157692
    23  H    0.119489
    24  H    0.174898
    25  H    0.119652
    26  H    0.187410
    27  O   -0.610654
    28  O   -0.616502
    29  C   -0.412241
    30  O   -0.620552
    31  C   -0.410693
    32  C   -0.419144
    33  O   -0.629557
    34  C   -0.393955
    35  C   -0.412037
    36  C   -0.397887
    37  C   -0.176721
    38  C    0.134986
    39  C   -0.146475
    40  C   -0.193470
    41  C    0.113040
    42  C    0.139433
    43  C   -0.064850
    44  C    0.199986
    45  C   -0.149304
    46  C    0.100018
    47  C   -0.211209
    48  C    0.095250
    49  C    0.030304
    50  C   -0.147398
    51  C   -0.005571
    52  C    0.206991
    53  C   -0.266741
    54  C    0.005307
    55  C   -0.145365
    56  C   -0.050766
    57  C    0.026300
    58  C   -0.194668
    59  C   -0.143479
    60  C    0.106153
    61  C   -0.237131
    62  C    0.078957
    63  C    0.109343
    64  C   -0.211344
    65  C   -0.266905
    66  P    1.333914
    67  H    0.379224
    68  H    0.123058
    69  H    0.170334
    70  H    0.118572
    71  H    0.154062
    72  H    0.122923
    73  H    0.129114
    74  H    0.146292
    75  H    0.134825
    76  H    0.130678
    77  H    0.140471
    78  H    0.165648
    79  H    0.112418
    80  H    0.138500
    81  H    0.170180
    82  H    0.125998
    83  H    0.122746
    84  H    0.122468
    85  H    0.155348
    86  H    0.101053
    87  H    0.122884
    88  H    0.096766
    89  H    0.139353
    90  H    0.119199
    91  H    0.131056
    92  H    0.140583
    93  H    0.137185
    94  H    0.125851
    95  H    0.110329
    96  H    0.130414
    97  H    0.103652
    98  H    0.116698
    99  H    0.137297
   100  H    0.140195
   101  H    0.135547
   102  O   -0.551333
   103  C   -0.022982
   104  H    0.179124
   105  H    0.140054
   106  C    0.523868
   107  C    0.800449
   108  F   -0.278602
   109  F   -0.271334
   110  F   -0.265083
   111  F   -0.264608
   112  F   -0.252345
 Sum of Mulliken charges =  -0.00000

 Dipole moment (field-independent basis, Debye):
    X=              3.4592    Y=             -4.4014    Z=             -0.0128  Tot=              5.5980
 Quadrupole moment (field-independent basis, Debye-Ang):
   XX=           -400.1509   YY=           -382.3620   ZZ=           -379.1723
   XY=            -34.1838   XZ=             19.1558   YZ=              0.6368

  Exact polarizability:       0.000       0.000       0.000       0.000       0.000       0.000
 Approx polarizability:     726.224     -31.834     696.680     -44.060      15.340     670.033

 Normal termination of Gaussian 16 at Sat Nov 12 13:03:46 2022.
