 Gaussian 16, Revision C.01,
 Gaussian 16:  ES64L-G16RevC.01  3-Jul-2019

 ------------------------------------------------------------
 #p irc=(calcfc,maxpoints=30,lqa,stepsize=5) 6-31g(d,p) m062x
 ------------------------------------------------------------

 -----
 TITLE
 -----
 Symbolic Z-matrix:
 Charge =  0 Multiplicity = 1

 SCF Done:  E(RM062X) =  -3557.96224822     A.U. after   16 cycles
 SCF Done:  E(RM062X) =  -3557.96229325     A.U. after   12 cycles
 SCF Done:  E(RM062X) =  -3557.96246530     A.U. after   12 cycles
 SCF Done:  E(RM062X) =  -3557.96280408     A.U. after   12 cycles
 SCF Done:  E(RM062X) =  -3557.96332789     A.U. after   12 cycles
 SCF Done:  E(RM062X) =  -3557.96404597     A.U. after   12 cycles
 SCF Done:  E(RM062X) =  -3557.96493908     A.U. after   12 cycles
 SCF Done:  E(RM062X) =  -3557.96597008     A.U. after   12 cycles
 SCF Done:  E(RM062X) =  -3557.96707114     A.U. after   12 cycles
 SCF Done:  E(RM062X) =  -3557.96814345     A.U. after   12 cycles
 SCF Done:  E(RM062X) =  -3557.96731814     A.U. after   10 cycles
 SCF Done:  E(RM062X) =  -3557.96754334     A.U. after   11 cycles
 SCF Done:  E(RM062X) =  -3557.96776773     A.U. after   10 cycles
 SCF Done:  E(RM062X) =  -3557.96798765     A.U. after   10 cycles
 SCF Done:  E(RM062X) =  -3557.96819591     A.U. after   10 cycles
 SCF Done:  E(RM062X) =  -3557.96839470     A.U. after    9 cycles
 SCF Done:  E(RM062X) =  -3557.96858444     A.U. after   10 cycles
 SCF Done:  E(RM062X) =  -3557.96876497     A.U. after   10 cycles
 SCF Done:  E(RM062X) =  -3557.96893331     A.U. after   10 cycles
 SCF Done:  E(RM062X) =  -3557.96909649     A.U. after   10 cycles

                          Input orientation:
 ---------------------------------------------------------------------
 Center     Atomic      Atomic             Coordinates (Angstroms)
 Number     Number       Type             X           Y           Z
 ---------------------------------------------------------------------
      1          8           0        0.323515    5.328176   -2.001660
      2          7           0       -1.528172    2.722608   -0.257331
      3          8           0       -1.671892    4.461118   -2.508613
      4          8           0       -3.391423    3.884343   -0.829654
      5          6           0        0.270200    4.170550    0.641738
      6          7           0       -6.184079   -1.191856    1.905242
      7          6           0       -5.281377   -0.169919    1.368069
      8          6           0       -0.654636    4.471074   -1.677434
      9          6           0       -3.690622    1.823459    0.318536
     10          6           0       -0.530295    3.704448   -0.553173
     11          6           0       -2.848789    2.891001   -0.303843
     12          6           0       -3.114671    0.794235    1.058404
     13          6           0       -5.861153    0.877949    0.663448
     14          6           0       -5.068798    1.882835    0.129870
     15          6           0       -3.891521   -0.247958    1.561393
     16          8           0       -7.227057   -1.375467    1.300390
     17          8           0       -5.851738   -1.762286    2.923509
     18          1           0        0.000638    5.855141   -2.745514
     19          1           0       -1.172692    1.793557   -0.026206
     20          1           0       -2.508497    4.266459   -1.928309
     21          1           0        0.670374    3.331010    1.218623
     22          1           0        1.116101    4.783402    0.325446
     23          1           0       -0.366232    4.765471    1.307597
     24          1           0       -2.048705    0.774030    1.228566
     25          1           0       -5.493130    2.708881   -0.427965
     26          8           0        1.604078    1.927615   -0.774706
     27          8           0        1.490678   -0.217720   -1.921999
     28          6           0       -4.022084    2.257701   -3.577189
     29          8           0        2.149240   -0.200324    0.529509
     30          6           0        0.474764    0.279571   -4.552911
     31          6           0        2.061365    4.877080    4.432320
     32          8           0       -0.247971    0.249587   -0.013150
     33          6           0        4.179495    3.696112    0.032632
     34          6           0        3.146564    0.060382    3.439240
     35          6           0       -2.721738   -2.004859   -1.270688
     36          6           0       -3.275255    0.113814   -2.465524
     37          6           0        2.082363   -2.514588   -1.649245
     38          6           0        0.494347   -4.251745   -2.197358
     39          6           0       -1.761121    1.206155   -3.954072
     40          6           0       -2.997742    1.184366   -3.314765
     41          6           0        4.092298   -1.122617   -0.543912
     42          6           0       -1.104156   -0.863789   -2.891325
     43          6           0        1.165942   -1.565952   -2.067304
     44          6           0        3.518808   -2.380243   -1.179985
     45          6           0       -0.815589    0.195582   -3.773060
     46          6           0        4.500174   -2.557492   -2.375219
     47          6           0       -2.352743   -0.905261   -2.236291
     48          6           0        1.708678   -3.860860   -1.650352
     49          6           0       -0.377563   -3.279101   -2.682341
     50          6           0        4.272036    0.871372    0.850377
     51          6           0        3.519601   -0.157126    0.272226
     52          6           0        5.859210   -2.085019   -1.834741
     53          6           0       -0.090588   -1.912633   -2.579837
     54          6           0        6.233283   -0.009799   -0.293747
     55          6           0        3.660369    1.890786    1.752237
     56          6           0        5.453443   -1.013857   -0.850486
     57          6           0        2.629252    2.482637    3.852839
     58          6           0        5.640586    0.911576    0.564606
     59          6           0        3.139217    1.502985    2.998648
     60          6           0        3.165473    4.193746    2.272364
     61          6           0        3.666859    3.248012    1.380046
     62          6           0        2.635274    3.832220    3.510239
     63          6           0        3.608298   -3.614801   -0.239378
     64          6           0        2.753292   -4.691284   -0.939507
     65         15           0        1.131465    0.456276   -0.514375
     66          1           0        0.873546    2.594289   -0.957230
     67          1           0       -3.542194    3.221349   -3.764146
     68          1           0       -4.621940    2.009132   -4.459133
     69          1           0       -4.704296    2.370479   -2.730898
     70          1           0        0.278935    0.657297   -5.559577
     71          1           0        0.960744   -0.694384   -4.642039
     72          1           0        1.183397    0.957342   -4.068460
     73          1           0        1.909248    4.479165    5.437976
     74          1           0        2.721173    5.745927    4.504178
     75          1           0        1.093170    5.232044    4.063365
     76          1           0        3.831576    4.708597   -0.187456
     77          1           0        5.273445    3.707530   -0.004562
     78          1           0        3.829116    3.030143   -0.758933
     79          1           0        2.392571   -0.522178    2.902246
     80          1           0        2.936491   -0.014940    4.508218
     81          1           0        4.117232   -0.405995    3.247123
     82          1           0       -3.132806   -2.879095   -1.786664
     83          1           0       -1.858336   -2.352330   -0.701728
     84          1           0       -3.491599   -1.660594   -0.575926
     85          1           0       -4.235470    0.074233   -1.953891
     86          1           0        0.209939   -5.299287   -2.223234
     87          1           0       -1.527087    2.029512   -4.626054
     88          1           0        4.177164   -1.898188   -3.187791
     89          1           0        4.507636   -3.583308   -2.753203
     90          1           0       -1.332078   -3.574302   -3.105785
     91          1           0        6.520482   -1.704035   -2.617386
     92          1           0        6.392062   -2.898699   -1.327593
     93          1           0        7.290730    0.062010   -0.529589
     94          1           0        2.230396    2.180576    4.818744
     95          1           0        6.237630    1.695314    1.021157
     96          1           0        3.171776    5.243473    1.983790
     97          1           0        4.641010   -3.924309   -0.056053
     98          1           0        3.153459   -3.350534    0.721798
     99          1           0        2.299657   -5.390495   -0.231391
    100          1           0        3.348264   -5.282791   -1.645369
    101          1           0       -6.936858    0.869350    0.536368
    102          8           0       -3.354552   -1.334114    2.155259
    103          6           0       -1.948576   -1.469556    2.080021
    104          1           0       -1.553009   -1.142580    1.113754
    105          1           0       -1.451744   -0.906017    2.878223
    106          6           0       -1.628021   -2.939509    2.243263
    107          6           0       -0.142206   -3.218260    1.975165
    108          9           0       -1.906292   -3.377849    3.487099
    109          9           0       -2.335122   -3.680262    1.364540
    110          9           0        0.179184   -2.852922    0.730731
    111          9           0        0.612993   -2.517666    2.826637
    112          9           0        0.132852   -4.509428    2.122635
 ---------------------------------------------------------------------

 Alpha  occ. eigenvalues --  -78.23493 -25.30935 -25.30916 -25.30681 -25.28615
 Alpha  occ. eigenvalues --  -25.28386 -19.70515 -19.70045 -19.69759 -19.69399
 Alpha  occ. eigenvalues --  -19.68408 -19.67184 -19.66935 -19.66924 -19.64170
 Alpha  occ. eigenvalues --  -19.63414 -15.00873 -14.80477 -10.81935 -10.74395
 Alpha  occ. eigenvalues --  -10.68892 -10.68091 -10.65597 -10.63088 -10.62737
 Alpha  occ. eigenvalues --  -10.62359 -10.62227 -10.59314 -10.58729 -10.58313
 Alpha  occ. eigenvalues --  -10.58065 -10.57881 -10.57487 -10.56911 -10.56772
 Alpha  occ. eigenvalues --  -10.56698 -10.56573 -10.56383 -10.56292 -10.56224
 Alpha  occ. eigenvalues --  -10.55975 -10.55943 -10.55932 -10.55891 -10.55783
 Alpha  occ. eigenvalues --  -10.55747 -10.55743 -10.55726 -10.55674 -10.55507
 Alpha  occ. eigenvalues --  -10.55427 -10.55394 -10.55380 -10.55213 -10.55041
 Alpha  occ. eigenvalues --  -10.54833 -10.54309 -10.54101 -10.54035 -10.53609
 Alpha  occ. eigenvalues --  -10.53567 -10.53552 -10.53549 -10.53522 -10.53457
 Alpha  occ. eigenvalues --  -10.53320  -7.01513  -5.13305  -5.13272  -5.13191
 Alpha  occ. eigenvalues --   -1.48245  -1.42078  -1.38784  -1.38677  -1.36215
 Alpha  occ. eigenvalues --   -1.35829  -1.25494  -1.24957  -1.22935  -1.19540
 Alpha  occ. eigenvalues --   -1.19244  -1.17521  -1.17493  -1.15482  -1.11345
 Alpha  occ. eigenvalues --   -1.05784  -1.00718  -1.00399  -0.98327  -0.97032
 Alpha  occ. eigenvalues --   -0.96195  -0.93742  -0.93227  -0.92048  -0.91135
 Alpha  occ. eigenvalues --   -0.88461  -0.88354  -0.87703  -0.87552  -0.87468
 Alpha  occ. eigenvalues --   -0.87356  -0.86625  -0.84903  -0.83680  -0.82756
 Alpha  occ. eigenvalues --   -0.82405  -0.81102  -0.80199  -0.78946  -0.78666
 Alpha  occ. eigenvalues --   -0.78176  -0.77150  -0.76915  -0.76638  -0.76467
 Alpha  occ. eigenvalues --   -0.76069  -0.74354  -0.73523  -0.72489  -0.72345
 Alpha  occ. eigenvalues --   -0.71849  -0.71547  -0.70844  -0.69813  -0.68756
 Alpha  occ. eigenvalues --   -0.68735  -0.68251  -0.68144  -0.67721  -0.66715
 Alpha  occ. eigenvalues --   -0.65822  -0.65670  -0.65343  -0.65072  -0.64775
 Alpha  occ. eigenvalues --   -0.64703  -0.63560  -0.63303  -0.62955  -0.62151
 Alpha  occ. eigenvalues --   -0.61937  -0.61681  -0.59985  -0.59516  -0.59036
 Alpha  occ. eigenvalues --   -0.58666  -0.58522  -0.58083  -0.57943  -0.57599
 Alpha  occ. eigenvalues --   -0.57478  -0.57142  -0.56849  -0.56305  -0.56102
 Alpha  occ. eigenvalues --   -0.55968  -0.55612  -0.55227  -0.54949  -0.54756
 Alpha  occ. eigenvalues --   -0.54081  -0.53720  -0.53592  -0.53546  -0.52983
 Alpha  occ. eigenvalues --   -0.52795  -0.52617  -0.52312  -0.52045  -0.51975
 Alpha  occ. eigenvalues --   -0.51616  -0.51140  -0.50910  -0.50524  -0.50321
 Alpha  occ. eigenvalues --   -0.49660  -0.49393  -0.49305  -0.48942  -0.48820
 Alpha  occ. eigenvalues --   -0.48674  -0.48530  -0.48319  -0.48193  -0.47581
 Alpha  occ. eigenvalues --   -0.47433  -0.47359  -0.47065  -0.46952  -0.46617
 Alpha  occ. eigenvalues --   -0.46470  -0.46322  -0.46206  -0.46083  -0.45857
 Alpha  occ. eigenvalues --   -0.45755  -0.45704  -0.45616  -0.45481  -0.45328
 Alpha  occ. eigenvalues --   -0.45140  -0.44947  -0.44495  -0.44279  -0.44018
 Alpha  occ. eigenvalues --   -0.43675  -0.43000  -0.42758  -0.42590  -0.42399
 Alpha  occ. eigenvalues --   -0.42201  -0.42000  -0.41776  -0.41399  -0.41272
 Alpha  occ. eigenvalues --   -0.40920  -0.40543  -0.40410  -0.39798  -0.39724
 Alpha  occ. eigenvalues --   -0.39538  -0.39280  -0.39109  -0.38650  -0.38374
 Alpha  occ. eigenvalues --   -0.38055  -0.37890  -0.37709  -0.37371  -0.37148
 Alpha  occ. eigenvalues --   -0.36709  -0.36614  -0.35155  -0.33755  -0.31075
 Alpha  occ. eigenvalues --   -0.30831  -0.30654  -0.30506  -0.29201  -0.28552
 Alpha  occ. eigenvalues --   -0.27948  -0.27530  -0.27219  -0.26654
 Alpha virt. eigenvalues --   -0.05325   0.00584   0.00873   0.01120   0.01304
 Alpha virt. eigenvalues --    0.01711   0.02239   0.03908   0.04300   0.04663
 Alpha virt. eigenvalues --    0.05253   0.05401   0.08429   0.09190   0.10181

 Mulliken charges:
               1
     1  O   -0.538251
     2  N   -0.604602
     3  O   -0.605136
     4  O   -0.618623
     5  C   -0.320884
     6  N    0.390513
     7  C    0.177788
     8  C    0.602614
     9  C    0.027779
    10  C   -0.101151
    11  C    0.629924
    12  C   -0.171718
    13  C   -0.110093
    14  C   -0.150285
    15  C    0.368826
    16  O   -0.402095
    17  O   -0.372605
    18  H    0.358822
    19  H    0.352660
    20  H    0.433218
    21  H    0.132637
    22  H    0.140789
    23  H    0.139544
    24  H    0.156082
    25  H    0.168575
    26  O   -0.603412
    27  O   -0.616205
    28  C   -0.400079
    29  O   -0.615255
    30  C   -0.394092
    31  C   -0.408330
    32  O   -0.630302
    33  C   -0.396412
    34  C   -0.413854
    35  C   -0.381866
    36  C   -0.190334
    37  C    0.133213
    38  C   -0.143489
    39  C   -0.183392
    40  C    0.085394
    41  C    0.141762
    42  C   -0.043452
    43  C    0.201787
    44  C   -0.148245
    45  C    0.076706
    46  C   -0.211474
    47  C    0.105423
    48  C    0.027840
    49  C   -0.156607
    50  C   -0.003340
    51  C    0.205398
    52  C   -0.266115
    53  C    0.009777
    54  C   -0.144835
    55  C   -0.059127
    56  C    0.023402
    57  C   -0.200581
    58  C   -0.145075
    59  C    0.105697
    60  C   -0.200811
    61  C    0.096878
    62  C    0.100511
    63  C   -0.208483
    64  C   -0.266634
    65  P    1.320759
    66  H    0.386073
    67  H    0.134505
    68  H    0.144204
    69  H    0.116101
    70  H    0.127159
    71  H    0.126660
    72  H    0.151080
    73  H    0.129998
    74  H    0.136907
    75  H    0.140958
    76  H    0.121580
    77  H    0.130484
    78  H    0.155999
    79  H    0.156755
    80  H    0.123840
    81  H    0.135766
    82  H    0.140929
    83  H    0.116646
    84  H    0.107586
    85  H    0.089927
    86  H    0.126052
    87  H    0.103343
    88  H    0.137758
    89  H    0.118806
    90  H    0.130059
    91  H    0.139161
    92  H    0.136866
    93  H    0.123862
    94  H    0.102129
    95  H    0.130534
    96  H    0.099825
    97  H    0.118321
    98  H    0.132645
    99  H    0.142705
   100  H    0.135632
   101  H    0.180549
   102  O   -0.536035
   103  C   -0.029641
   104  H    0.178835
   105  H    0.161787
   106  C    0.518481
   107  C    0.811759
   108  F   -0.281775
   109  F   -0.277167
   110  F   -0.242134
   111  F   -0.263255
   112  F   -0.259328
 Sum of Mulliken charges =  -0.00000

 Dipole moment (field-independent basis, Debye):
    X=              7.0516    Y=              2.6098    Z=             -2.7287  Tot=              7.9989
 Quadrupole moment (field-independent basis, Debye-Ang):
   XX=           -395.7148   YY=           -364.2891   ZZ=           -383.6968
   XY=            -23.1016   XZ=              7.6646   YZ=              9.0710

  Exact polarizability:       0.000       0.000       0.000       0.000       0.000       0.000
 Approx polarizability:     743.992     -17.617     752.027     -14.946     -61.734     606.640

 Normal termination of Gaussian 16 at Sat Nov 12 08:41:40 2022.
