 Gaussian 16, Revision C.01,

 ------------------------------------------------------------
 #p irc=(calcfc,maxpoints=30,lqa,stepsize=8) 6-31g(d,p) m062x
 ------------------------------------------------------------

 -----
 TITLE
 -----
 Symbolic Z-matrix:
 Charge =  0 Multiplicity = 1

 SCF Done:  E(RM062X) =  -3557.96235746     A.U. after   16 cycles
 SCF Done:  E(RM062X) =  -3557.96250731     A.U. after   12 cycles
 SCF Done:  E(RM062X) =  -3557.96289023     A.U. after   12 cycles
 SCF Done:  E(RM062X) =  -3557.96335029     A.U. after   12 cycles
 SCF Done:  E(RM062X) =  -3557.96379227     A.U. after   11 cycles
 SCF Done:  E(RM062X) =  -3557.96421417     A.U. after   11 cycles
 SCF Done:  E(RM062X) =  -3557.96461664     A.U. after   11 cycles
 SCF Done:  E(RM062X) =  -3557.96501108     A.U. after   11 cycles
 SCF Done:  E(RM062X) =  -3557.96541848     A.U. after   12 cycles
 SCF Done:  E(RM062X) =  -3557.96588242     A.U. after   12 cycles
 Normal termination of Gaussian 16 at Sun Nov 13 01:11:24 2022.
 Gaussian 16:  ES64L-G16RevC.01  3-Jul-2019

 ----------------------------------------------------------------------
 #p irc=(restart,maxpoints=60,lqa,stepsize=15) 6-31g(d,p) m062x geom=al
 lcheck guess=read
 ----------------------------------------------------------------------

 SCF Done:  E(RM062X) =  -3557.97260035     A.U. after   10 cycles
 SCF Done:  E(RM062X) =  -3557.97268412     A.U. after   10 cycles
 SCF Done:  E(RM062X) =  -3557.97276581     A.U. after   10 cycles
 SCF Done:  E(RM062X) =  -3557.97284546     A.U. after   10 cycles
 SCF Done:  E(RM062X) =  -3557.97292307     A.U. after   10 cycles
 SCF Done:  E(RM062X) =  -3557.97299870     A.U. after   10 cycles
 SCF Done:  E(RM062X) =  -3557.97307230     A.U. after   10 cycles
 SCF Done:  E(RM062X) =  -3557.97314401     A.U. after   10 cycles
 SCF Done:  E(RM062X) =  -3557.97321358     A.U. after   10 cycles
 SCF Done:  E(RM062X) =  -3557.97328141     A.U. after   10 cycles

                          Input orientation:
 ---------------------------------------------------------------------
 Center     Atomic      Atomic             Coordinates (Angstroms)
 Number     Number       Type             X           Y           Z
 ---------------------------------------------------------------------
      1          8           0        1.508505    3.013822    4.500189
      2          7           0       -0.085454    1.778914    1.421442
      3          8           0       -0.458071    2.005130    4.372176
      4          8           0       -2.083270    1.645213    2.555259
      5          6           0        1.400359    3.711001    1.755825
      6          7           0       -4.080186   -1.605077   -2.461715
      7          6           0       -3.399879   -0.752304   -1.479359
      8          6           0        0.528539    2.461793    3.805292
      9          6           0       -2.026164    0.746381    0.388801
     10          6           0        0.872716    2.400837    2.349424
     11          6           0       -1.334708    1.431931    1.515458
     12          6           0       -1.323023    0.136884   -0.654977
     13          6           0       -4.118335   -0.137158   -0.448900
     14          6           0       -3.412993    0.613560    0.483451
     15          6           0       -2.021622   -0.621920   -1.584212
     16          8           0       -5.210253   -1.299069   -2.792903
     17          8           0       -3.453911   -2.555905   -2.888446
     18          1           0        1.279952    2.950936    5.441561
     19          1           0        0.485730    1.523424    0.540866
     20          1           0       -1.509436    1.803023    3.389016
     21          1           0        0.622685    4.477141    1.713645
     22          1           0        2.235667    4.070815    2.357064
     23          1           0        1.768500    3.507548    0.746106
     24          1           0       -0.240543    0.195067   -0.730734
     25          1           0       -3.954846    1.038108    1.320429
     26          8           0        2.493943    0.149293    1.857407
     27          8           0        4.089141    0.224700   -0.039665
     28          6           0        3.692566    6.482807    0.043018
     29          8           0        2.036627   -1.290637   -0.243555
     30          6           0        6.415797    2.253722   -0.115589
     31          6           0       -3.546054   -1.373020    3.105326
     32          8           0        1.681453    1.171317   -0.386854
     33          6           0        1.365911   -1.439532    4.136314
     34          6           0       -0.366696   -3.359044   -0.253940
     35          6           0        2.355360    2.800040   -3.113984
     36          6           0        3.121226    4.606449   -1.546758
     37          6           0        4.661205   -1.225114   -1.839924
     38          6           0        5.133184   -0.307973   -4.029254
     39          6           0        5.015544    4.337612   -0.113004
     40          6           0        3.954507    5.123821   -0.555578
     41          6           0        3.803892   -2.857530    0.099620
     42          6           0        4.394115    2.556520   -1.621369
     43          6           0        4.454302    0.059616   -1.358754
     44          6           0        4.668521   -2.560796   -1.114633
     45          6           0        5.251343    3.062270   -0.629207
     46          6           0        6.073571   -2.901331   -0.541013
     47          6           0        3.318099    3.334511   -2.084080
     48          6           0        4.960195   -1.403802   -3.192328
     49          6           0        4.977937    0.975962   -3.508975
     50          6           0        1.864878   -2.869840    1.569735
     51          6           0        2.558127   -2.367033    0.459396
     52          6           0        5.825996   -4.083883    0.415669
     53          6           0        4.615548    1.186665   -2.174059
     54          6           0        3.774013   -4.316000    2.030108
     55          6           0        0.494991   -2.391543    1.932560
     56          6           0        4.426803   -3.805544    0.916668
     57          6           0       -1.880546   -2.348331    1.470721
     58          6           0        2.489498   -3.863298    2.329699
     59          6           0       -0.583563   -2.680524    1.075378
     60          6           0       -1.051807   -1.378519    3.489778
     61          6           0        0.256917   -1.734825    3.156209
     62          6           0       -2.138445   -1.699904    2.675370
     63          6           0        4.334018   -3.514864   -2.297323
     64          6           0        5.023095   -2.878738   -3.519444
     65         15           0        2.516581    0.156276    0.368339
     66          1           0        1.712976    1.673600    2.356598
     67          1           0        3.227779    7.153669   -0.683838
     68          1           0        3.015124    6.410264    0.901781
     69          1           0        4.617444    6.946846    0.394333
     70          1           0        7.105006    2.885913    0.448676
     71          1           0        6.967345    1.787505   -0.936835
     72          1           0        6.066075    1.452162    0.542167
     73          1           0       -3.618847   -0.336547    3.450217
     74          1           0       -4.258425   -1.513302    2.287451
     75          1           0       -3.858770   -2.016948    3.933565
     76          1           0        1.079664   -0.601800    4.780255
     77          1           0        1.547103   -2.300957    4.788787
     78          1           0        2.291548   -1.186762    3.620461
     79          1           0        0.232962   -2.726995   -0.917712
     80          1           0       -1.321462   -3.562395   -0.746210
     81          1           0        0.172701   -4.303700   -0.134455
     82          1           0        2.826871    2.677917   -4.093291
     83          1           0        1.978348    1.824142   -2.796447
     84          1           0        1.508238    3.479891   -3.232040
     85          1           0        2.287035    5.205676   -1.906902
     86          1           0        5.377794   -0.446443   -5.078223
     87          1           0        5.685227    4.726893    0.651278
     88          1           0        6.432833   -2.036609    0.026964
     89          1           0        6.800687   -3.118886   -1.328849
     90          1           0        5.122302    1.842195   -4.148393
     91          1           0        6.557441   -4.133335    1.226849
     92          1           0        5.868821   -5.042085   -0.116875
     93          1           0        4.256945   -5.051076    2.667055
     94          1           0       -2.711136   -2.601490    0.813151
     95          1           0        1.959334   -4.264294    3.188865
     96          1           0       -1.228286   -0.860948    4.432091
     97          1           0        4.649577   -4.543653   -2.101269
     98          1           0        3.248638   -3.514138   -2.444570
     99          1           0        4.524025   -3.120790   -4.461735
    100          1           0        6.063465   -3.215071   -3.609464
    101          1           0       -1.505137   -1.149031   -2.377643
    102          8           0       -5.450985   -0.362538   -0.257786
    103          6           0       -6.309424    0.593988   -0.854389
    104          1           0       -6.243259    1.558946   -0.338306
    105          1           0       -6.086312    0.711825   -1.918045
    106          6           0       -7.715414    0.049101   -0.706924
    107          6           0       -8.771973    0.984703   -1.304102
    108          9           0       -7.830771   -1.139742   -1.325191
    109          9           0       -8.021855   -0.115909    0.598399
    110          9           0       -8.710167    2.177880   -0.703539
    111          9           0       -8.544491    1.158561   -2.607108
    112          9           0       -9.989305    0.484862   -1.140502
 ---------------------------------------------------------------------

 Alpha  occ. eigenvalues --  -78.17523 -25.30845 -25.30748 -25.30553 -25.28595
 Alpha  occ. eigenvalues --  -25.28395 -19.74090 -19.71129 -19.70195 -19.70035
 Alpha  occ. eigenvalues --  -19.69186 -19.69095 -19.66183 -19.66111 -19.60071
 Alpha  occ. eigenvalues --  -19.58045 -15.02700 -14.84222 -10.81948 -10.75033
 Alpha  occ. eigenvalues --  -10.74492 -10.72863 -10.65993 -10.63982 -10.63904
 Alpha  occ. eigenvalues --  -10.63126 -10.61443 -10.60287 -10.60134 -10.59869
 Alpha  occ. eigenvalues --  -10.59739 -10.59221 -10.56490 -10.56433 -10.54981
 Alpha  occ. eigenvalues --  -10.54975 -10.54911 -10.54882 -10.54878 -10.54839
 Alpha  occ. eigenvalues --  -10.54719 -10.54605 -10.54592 -10.54578 -10.54558
 Alpha  occ. eigenvalues --  -10.54514 -10.54510 -10.54502 -10.54495 -10.54475
 Alpha  occ. eigenvalues --  -10.54446 -10.54298 -10.54269 -10.54237 -10.54122
 Alpha  occ. eigenvalues --  -10.54011 -10.53952 -10.53846 -10.53427 -10.53391
 Alpha  occ. eigenvalues --  -10.53040 -10.53023 -10.52796 -10.52331 -10.52271
 Alpha  occ. eigenvalues --  -10.52132  -6.95618  -5.07452  -5.07363  -5.07230
 Alpha  occ. eigenvalues --   -1.48286  -1.42139  -1.38822  -1.38713  -1.38133
 Alpha  occ. eigenvalues --   -1.35874  -1.30048  -1.25587  -1.22576  -1.20678
 Alpha  occ. eigenvalues --   -1.19763  -1.19427  -1.15837  -1.10658  -1.08473
 Alpha  occ. eigenvalues --   -1.04892  -1.01849  -0.98795  -0.96663  -0.95996
 Alpha  occ. eigenvalues --   -0.95116  -0.94859  -0.92915  -0.92151  -0.91833
 Alpha  occ. eigenvalues --   -0.89701  -0.88546  -0.87372  -0.86753  -0.86534
 Alpha  occ. eigenvalues --   -0.86443  -0.84634  -0.84490  -0.82845  -0.82703
 Alpha  occ. eigenvalues --   -0.81294  -0.81058  -0.80174  -0.78211  -0.78042
 Alpha  occ. eigenvalues --   -0.77915  -0.77456  -0.76696  -0.75561  -0.75538
 Alpha  occ. eigenvalues --   -0.75367  -0.75230  -0.74476  -0.72586  -0.71557
 Alpha  occ. eigenvalues --   -0.70975  -0.70899  -0.70631  -0.70406  -0.69937
 Alpha  occ. eigenvalues --   -0.69598  -0.69435  -0.66566  -0.66453  -0.66295
 Alpha  occ. eigenvalues --   -0.65961  -0.65761  -0.65272  -0.64358  -0.64069
 Alpha  occ. eigenvalues --   -0.63855  -0.63420  -0.63364  -0.62784  -0.62424
 Alpha  occ. eigenvalues --   -0.61525  -0.61489  -0.60591  -0.60206  -0.60165
 Alpha  occ. eigenvalues --   -0.59075  -0.57936  -0.57855  -0.57701  -0.57339
 Alpha  occ. eigenvalues --   -0.57124  -0.56598  -0.56497  -0.55785  -0.55539
 Alpha  occ. eigenvalues --   -0.55042  -0.54949  -0.54673  -0.54615  -0.54455
 Alpha  occ. eigenvalues --   -0.54306  -0.54096  -0.53753  -0.53552  -0.53037
 Alpha  occ. eigenvalues --   -0.52437  -0.52252  -0.52232  -0.52014  -0.51731
 Alpha  occ. eigenvalues --   -0.51561  -0.51248  -0.50665  -0.50374  -0.50116
 Alpha  occ. eigenvalues --   -0.49896  -0.49547  -0.48904  -0.48661  -0.48284
 Alpha  occ. eigenvalues --   -0.48175  -0.48108  -0.47979  -0.47359  -0.47094
 Alpha  occ. eigenvalues --   -0.46810  -0.46656  -0.46481  -0.46337  -0.46194
 Alpha  occ. eigenvalues --   -0.46036  -0.45932  -0.45665  -0.45562  -0.45303
 Alpha  occ. eigenvalues --   -0.45268  -0.45092  -0.44910  -0.44830  -0.44665
 Alpha  occ. eigenvalues --   -0.44601  -0.44174  -0.43969  -0.43293  -0.42543
 Alpha  occ. eigenvalues --   -0.42317  -0.42156  -0.41947  -0.41169  -0.41090
 Alpha  occ. eigenvalues --   -0.40719  -0.40565  -0.40490  -0.40413  -0.40222
 Alpha  occ. eigenvalues --   -0.39966  -0.39435  -0.39062  -0.39020  -0.38887
 Alpha  occ. eigenvalues --   -0.38783  -0.38483  -0.38278  -0.38101  -0.37927
 Alpha  occ. eigenvalues --   -0.37692  -0.37640  -0.37314  -0.37109  -0.36824
 Alpha  occ. eigenvalues --   -0.36240  -0.35448  -0.34982  -0.34521  -0.33560
 Alpha  occ. eigenvalues --   -0.32652  -0.29186  -0.28922  -0.28718  -0.27703
 Alpha  occ. eigenvalues --   -0.27427  -0.27176  -0.26274  -0.26110
 Alpha virt. eigenvalues --   -0.07336  -0.01315  -0.00844   0.00163   0.02442
 Alpha virt. eigenvalues --    0.02513   0.03577   0.03880   0.04607   0.05255
 Alpha virt. eigenvalues --    0.05729   0.05906   0.06052   0.08246   0.09097

 Mulliken charges:
               1
     1  O   -0.482085
     2  N   -0.589468
     3  O   -0.556389
     4  O   -0.573148
     5  C   -0.347197
     6  N    0.402668
     7  C    0.206022
     8  C    0.653908
     9  C    0.014318
    10  C   -0.095048
    11  C    0.648942
    12  C   -0.103613
    13  C    0.326859
    14  C   -0.135591
    15  C   -0.126917
    16  O   -0.386366
    17  O   -0.381336
    18  H    0.370183
    19  H    0.406692
    20  H    0.438893
    21  H    0.128849
    22  H    0.161320
    23  H    0.184402
    24  H    0.193847
    25  H    0.171362
    26  O   -0.650959
    27  O   -0.628336
    28  C   -0.407175
    29  O   -0.656265
    30  C   -0.411427
    31  C   -0.405490
    32  O   -0.718605
    33  C   -0.398096
    34  C   -0.408103
    35  C   -0.393505
    36  C   -0.212823
    37  C    0.134227
    38  C   -0.151909
    39  C   -0.199556
    40  C    0.098573
    41  C    0.128164
    42  C   -0.050793
    43  C    0.233414
    44  C   -0.142511
    45  C    0.105558
    46  C   -0.211242
    47  C    0.121923
    48  C    0.027571
    49  C   -0.150452
    50  C    0.010194
    51  C    0.221575
    52  C   -0.266610
    53  C   -0.014417
    54  C   -0.151695
    55  C   -0.052235
    56  C    0.033965
    57  C   -0.199773
    58  C   -0.142819
    59  C    0.098865
    60  C   -0.218650
    61  C    0.101474
    62  C    0.091081
    63  C   -0.210370
    64  C   -0.266616
    65  P    1.294459
    66  H    0.288551
    67  H    0.130709
    68  H    0.129029
    69  H    0.131560
    70  H    0.116054
    71  H    0.133286
    72  H    0.168689
    73  H    0.122374
    74  H    0.127768
    75  H    0.146517
    76  H    0.092763
    77  H    0.125629
    78  H    0.185936
    79  H    0.143914
    80  H    0.124202
    81  H    0.142302
    82  H    0.124024
    83  H    0.162847
    84  H    0.109766
    85  H    0.092517
    86  H    0.115376
    87  H    0.094939
    88  H    0.138075
    89  H    0.111864
    90  H    0.122155
    91  H    0.134422
    92  H    0.130968
    93  H    0.114873
    94  H    0.090504
    95  H    0.120133
    96  H    0.095676
    97  H    0.113249
    98  H    0.133161
    99  H    0.134130
   100  H    0.131977
   101  H    0.189313
   102  O   -0.559423
   103  C   -0.003648
   104  H    0.144776
   105  H    0.167157
   106  C    0.513975
   107  C    0.803528
   108  F   -0.274041
   109  F   -0.288281
   110  F   -0.269066
   111  F   -0.261663
   112  F   -0.254279
 Sum of Mulliken charges =  -0.00000

 Dipole moment (field-independent basis, Debye):
    X=              1.8259    Y=              4.9775    Z=              4.0705  Tot=              6.6842
 Quadrupole moment (field-independent basis, Debye-Ang):
   XX=           -409.5440   YY=           -367.5728   ZZ=           -360.6917
   XY=            -26.9455   XZ=             -7.9260   YZ=             14.3327

  Exact polarizability:       0.000       0.000       0.000       0.000       0.000       0.000
 Approx polarizability:     729.820     -44.089     650.545      -5.081      66.344     699.705

 Normal termination of Gaussian 16 at Sun Nov 13 07:30:31 2022.
