 Gaussian 16, Revision C.01,
 Gaussian 16:  ES64L-G16RevC.01  3-Jul-2019

 ------------------------------------------------------------
 #p irc=(calcfc,maxpoints=30,lqa,stepsize=5) 6-31g(d,p) m062x
 ------------------------------------------------------------

 -----
 TITLE
 -----
 Symbolic Z-matrix:
 Charge =  0 Multiplicity = 1

 SCF Done:  E(RM062X) =  -3557.96235746     A.U. after   16 cycles
 SCF Done:  E(RM062X) =  -3557.96241765     A.U. after   12 cycles
 SCF Done:  E(RM062X) =  -3557.96258706     A.U. after   12 cycles
 SCF Done:  E(RM062X) =  -3557.96283768     A.U. after   12 cycles
 SCF Done:  E(RM062X) =  -3557.96312865     A.U. after   11 cycles
 SCF Done:  E(RM062X) =  -3557.96342359     A.U. after   11 cycles
 SCF Done:  E(RM062X) =  -3557.96370644     A.U. after   11 cycles
 SCF Done:  E(RM062X) =  -3557.96397721     A.U. after   11 cycles
 SCF Done:  E(RM062X) =  -3557.96423822     A.U. after   10 cycles
 SCF Done:  E(RM062X) =  -3557.96449170     A.U. after   10 cycles
 SCF Done:  E(RM062X) =  -3557.96756168     A.U. after    9 cycles
 SCF Done:  E(RM062X) =  -3557.96769157     A.U. after    9 cycles
 SCF Done:  E(RM062X) =  -3557.96781818     A.U. after    9 cycles
 SCF Done:  E(RM062X) =  -3557.96794157     A.U. after    9 cycles
 SCF Done:  E(RM062X) =  -3557.96806192     A.U. after    9 cycles
 SCF Done:  E(RM062X) =  -3557.96817987     A.U. after   10 cycles
 SCF Done:  E(RM062X) =  -3557.96829614     A.U. after   10 cycles
 SCF Done:  E(RM062X) =  -3557.96841047     A.U. after    9 cycles
 SCF Done:  E(RM062X) =  -3557.96852276     A.U. after    9 cycles
 SCF Done:  E(RM062X) =  -3557.96863301     A.U. after    9 cycles

                          Input orientation:
 ---------------------------------------------------------------------
 Center     Atomic      Atomic             Coordinates (Angstroms)
 Number     Number       Type             X           Y           Z
 ---------------------------------------------------------------------
      1          8           0        1.525504    2.952183    4.460080
      2          7           0       -0.138648    1.857721    1.373867
      3          8           0       -0.368381    1.812584    4.328816
      4          8           0       -2.071184    1.597258    2.590031
      5          6           0        1.610052    3.567423    1.726996
      6          7           0       -4.086915   -1.606069   -2.459124
      7          6           0       -3.415649   -0.752979   -1.471126
      8          6           0        0.563841    2.378794    3.757065
      9          6           0       -2.062528    0.763828    0.391548
     10          6           0        0.874161    2.363138    2.310172
     11          6           0       -1.369148    1.448678    1.512623
     12          6           0       -1.350286    0.155642   -0.646721
     13          6           0       -4.141071   -0.144757   -0.441190
     14          6           0       -3.446199    0.613924    0.492015
     15          6           0       -2.038831   -0.612984   -1.574364
     16          8           0       -5.217069   -1.304788   -2.793875
     17          8           0       -3.452261   -2.550328   -2.887819
     18          1           0        1.335298    2.798719    5.399377
     19          1           0        0.361811    1.639506    0.476191
     20          1           0       -1.448837    1.690945    3.413357
     21          1           0        0.979643    4.459606    1.686748
     22          1           0        2.494064    3.773778    2.331172
     23          1           0        1.945159    3.314154    0.716838
     24          1           0       -0.267496    0.220679   -0.721211
     25          1           0       -3.990974    1.034094    1.329776
     26          8           0        2.443830    0.248473    1.803827
     27          8           0        4.085740    0.236051   -0.028486
     28          6           0        3.692237    6.493174    0.048868
     29          8           0        2.032017   -1.280761   -0.226978
     30          6           0        6.412716    2.263201   -0.089177
     31          6           0       -3.551958   -1.383692    3.111191
     32          8           0        1.687828    1.170166   -0.513214
     33          6           0        1.365357   -1.390182    4.136544
     34          6           0       -0.350222   -3.361000   -0.233265
     35          6           0        2.387466    2.824241   -3.137231
     36          6           0        3.133621    4.619169   -1.549174
     37          6           0        4.674131   -1.217146   -1.817096
     38          6           0        5.132133   -0.307179   -4.011171
     39          6           0        5.013825    4.347306   -0.097954
     40          6           0        3.957541    5.135039   -0.549921
     41          6           0        3.809971   -2.835017    0.131248
     42          6           0        4.401126    2.565299   -1.609696
     43          6           0        4.470783    0.069044   -1.341262
     44          6           0        4.670422   -2.550684   -1.088938
     45          6           0        5.250801    3.070864   -0.610200
     46          6           0        6.074595   -2.909600   -0.524930
     47          6           0        3.333623    3.347228   -2.086031
     48          6           0        4.963487   -1.400725   -3.170691
     49          6           0        4.982216    0.979111   -3.494332
     50          6           0        1.870716   -2.847641    1.597854
     51          6           0        2.566556   -2.338402    0.492751
     52          6           0        5.817355   -4.090295    0.431037
     53          6           0        4.627006    1.194716   -2.158977
     54          6           0        3.767979   -4.311966    2.048755
     55          6           0        0.496731   -2.377717    1.951879
     56          6           0        4.424822   -3.794901    0.940552
     57          6           0       -1.876427   -2.353056    1.483405
     58          6           0        2.487494   -3.851467    2.351736
     59          6           0       -0.576355   -2.679467    1.092971
     60          6           0       -1.059455   -1.371618    3.502681
     61          6           0        0.252767   -1.713546    3.169534
     62          6           0       -2.141477   -1.704375    2.686354
     63          6           0        4.316733   -3.502183   -2.268252
     64          6           0        5.009134   -2.876988   -3.494496
     65         15           0        2.495811    0.198319    0.309009
     66          1           0        1.633261    1.516437    2.299527
     67          1           0        3.200508    7.154395   -0.668896
     68          1           0        3.038663    6.414413    0.925241
     69          1           0        4.619389    6.971089    0.374986
     70          1           0        7.099308    2.897049    0.476431
     71          1           0        6.968042    1.795455   -0.906966
     72          1           0        6.060880    1.463028    0.569149
     73          1           0       -3.631550   -0.345327    3.448393
     74          1           0       -4.261823   -1.534421    2.292959
     75          1           0       -3.862408   -2.023531    3.943428
     76          1           0        1.062725   -0.564639    4.788344
     77          1           0        1.585977   -2.248751    4.780362
     78          1           0        2.275792   -1.108908    3.606817
     79          1           0        0.247166   -2.726815   -0.896903
     80          1           0       -1.301977   -3.572806   -0.727769
     81          1           0        0.195272   -4.301568   -0.108957
     82          1           0        2.861330    2.769318   -4.121926
     83          1           0        2.045328    1.822438   -2.867086
     84          1           0        1.516716    3.478763   -3.222640
     85          1           0        2.304163    5.219880   -1.917451
     86          1           0        5.366553   -0.448815   -5.062027
     87          1           0        5.678199    4.736405    0.671116
     88          1           0        6.448864   -2.050609    0.042045
     89          1           0        6.793841   -3.135338   -1.317597
     90          1           0        5.121571    1.842370   -4.138692
     91          1           0        6.552933   -4.151121    1.237714
     92          1           0        5.844045   -5.048139   -0.103148
     93          1           0        4.243508   -5.060133    2.675958
     94          1           0       -2.703752   -2.612678    0.824207
     95          1           0        1.950837   -4.258521    3.204053
     96          1           0       -1.241189   -0.850612    4.441852
     97          1           0        4.618925   -4.534997   -2.072344
     98          1           0        3.230771   -3.486259   -2.410412
     99          1           0        4.503980   -3.115422   -4.434425
    100          1           0        6.045083   -3.225993   -3.587029
    101          1           0       -1.516055   -1.138173   -2.364868
    102          8           0       -5.472557   -0.376876   -0.258257
    103          6           0       -6.324239    0.587198   -0.851881
    104          1           0       -6.253587    1.549663   -0.331783
    105          1           0       -6.098646    0.707819   -1.914781
    106          6           0       -7.730970    0.046907   -0.707253
    107          6           0       -8.782698    0.986086   -1.305565
    108          9           0       -7.846838   -1.141085   -1.326886
    109          9           0       -8.038447   -0.118399    0.597677
    110          9           0       -8.716843    2.178824   -0.704535
    111          9           0       -8.551571    1.159375   -2.608022
    112          9           0      -10.001835    0.490476   -1.144114
 ---------------------------------------------------------------------

 Alpha  occ. eigenvalues --  -78.17682 -25.30901 -25.30802 -25.30612 -25.28658
 Alpha  occ. eigenvalues --  -25.28456 -19.73714 -19.71082 -19.70137 -19.69609
 Alpha  occ. eigenvalues --  -19.69280 -19.69181 -19.66233 -19.66161 -19.59816
 Alpha  occ. eigenvalues --  -19.58713 -15.02794 -14.85061 -10.82001 -10.74630
 Alpha  occ. eigenvalues --  -10.74537 -10.73047 -10.66132 -10.64050 -10.64032
 Alpha  occ. eigenvalues --  -10.62284 -10.61586 -10.60247 -10.60232 -10.59999
 Alpha  occ. eigenvalues --  -10.59940 -10.59388 -10.56532 -10.55869 -10.55048
 Alpha  occ. eigenvalues --  -10.54972 -10.54969 -10.54933 -10.54923 -10.54848
 Alpha  occ. eigenvalues --  -10.54790 -10.54617 -10.54594 -10.54568 -10.54559
 Alpha  occ. eigenvalues --  -10.54555 -10.54549 -10.54539 -10.54538 -10.54494
 Alpha  occ. eigenvalues --  -10.54469 -10.54333 -10.54287 -10.54270 -10.54206
 Alpha  occ. eigenvalues --  -10.54017 -10.53876 -10.53867 -10.53469 -10.53465
 Alpha  occ. eigenvalues --  -10.53001 -10.52992 -10.52843 -10.52346 -10.52298
 Alpha  occ. eigenvalues --  -10.52171  -6.95768  -5.07601  -5.07517  -5.07385
 Alpha  occ. eigenvalues --   -1.48343  -1.42205  -1.38877  -1.38778  -1.38233
 Alpha  occ. eigenvalues --   -1.35941  -1.29658  -1.25641  -1.22753  -1.20807
 Alpha  occ. eigenvalues --   -1.19533  -1.19250  -1.15937  -1.10914  -1.08823
 Alpha  occ. eigenvalues --   -1.05255  -1.02023  -0.98851  -0.96719  -0.96022
 Alpha  occ. eigenvalues --   -0.95146  -0.94951  -0.93022  -0.92190  -0.91765
 Alpha  occ. eigenvalues --   -0.89740  -0.88684  -0.87397  -0.86821  -0.86560
 Alpha  occ. eigenvalues --   -0.86413  -0.84728  -0.84528  -0.82957  -0.82762
 Alpha  occ. eigenvalues --   -0.81334  -0.81088  -0.80032  -0.78251  -0.78107
 Alpha  occ. eigenvalues --   -0.77872  -0.77352  -0.76751  -0.75636  -0.75593
 Alpha  occ. eigenvalues --   -0.75336  -0.75230  -0.74499  -0.72593  -0.71645
 Alpha  occ. eigenvalues --   -0.70992  -0.70958  -0.70678  -0.70471  -0.70274
 Alpha  occ. eigenvalues --   -0.69699  -0.69572  -0.66669  -0.66507  -0.66352
 Alpha  occ. eigenvalues --   -0.66032  -0.65837  -0.65276  -0.64430  -0.64159
 Alpha  occ. eigenvalues --   -0.63825  -0.63459  -0.63400  -0.62667  -0.62499
 Alpha  occ. eigenvalues --   -0.61771  -0.61586  -0.60530  -0.60267  -0.60224
 Alpha  occ. eigenvalues --   -0.59212  -0.58001  -0.57927  -0.57593  -0.57508
 Alpha  occ. eigenvalues --   -0.57159  -0.56641  -0.56561  -0.55795  -0.55468
 Alpha  occ. eigenvalues --   -0.55035  -0.55006  -0.54724  -0.54616  -0.54435
 Alpha  occ. eigenvalues --   -0.54349  -0.54100  -0.53817  -0.53603  -0.53012
 Alpha  occ. eigenvalues --   -0.52485  -0.52306  -0.52241  -0.52075  -0.51797
 Alpha  occ. eigenvalues --   -0.51721  -0.51291  -0.50691  -0.50365  -0.49979
 Alpha  occ. eigenvalues --   -0.49872  -0.49523  -0.48907  -0.48710  -0.48318
 Alpha  occ. eigenvalues --   -0.48214  -0.48121  -0.47945  -0.47460  -0.47142
 Alpha  occ. eigenvalues --   -0.46833  -0.46749  -0.46505  -0.46350  -0.46162
 Alpha  occ. eigenvalues --   -0.45988  -0.45860  -0.45767  -0.45541  -0.45318
 Alpha  occ. eigenvalues --   -0.45252  -0.45102  -0.44851  -0.44815  -0.44596
 Alpha  occ. eigenvalues --   -0.44344  -0.44216  -0.44009  -0.43411  -0.42628
 Alpha  occ. eigenvalues --   -0.42362  -0.42200  -0.41994  -0.41206  -0.41114
 Alpha  occ. eigenvalues --   -0.40768  -0.40652  -0.40484  -0.40438  -0.40313
 Alpha  occ. eigenvalues --   -0.40100  -0.39517  -0.39323  -0.39102  -0.39001
 Alpha  occ. eigenvalues --   -0.38830  -0.38435  -0.38310  -0.38119  -0.37862
 Alpha  occ. eigenvalues --   -0.37698  -0.37496  -0.37364  -0.36913  -0.36771
 Alpha  occ. eigenvalues --   -0.36270  -0.35411  -0.35183  -0.34908  -0.33771
 Alpha  occ. eigenvalues --   -0.32038  -0.29229  -0.28978  -0.28753  -0.27789
 Alpha  occ. eigenvalues --   -0.27409  -0.27224  -0.26379  -0.26075
 Alpha virt. eigenvalues --   -0.07500  -0.01533  -0.01001   0.00709   0.02410
 Alpha virt. eigenvalues --    0.02466   0.03548   0.03862   0.04565   0.05279
 Alpha virt. eigenvalues --    0.05633   0.05754   0.05951   0.08517   0.09046

 Mulliken charges:
               1
     1  O   -0.486699
     2  N   -0.575207
     3  O   -0.567337
     4  O   -0.571386
     5  C   -0.345134
     6  N    0.402771
     7  C    0.206553
     8  C    0.653616
     9  C    0.012507
    10  C   -0.113542
    11  C    0.644406
    12  C   -0.104713
    13  C    0.326414
    14  C   -0.133123
    15  C   -0.126865
    16  O   -0.385734
    17  O   -0.380985
    18  H    0.368886
    19  H    0.379330
    20  H    0.444422
    21  H    0.129653
    22  H    0.162573
    23  H    0.179899
    24  H    0.193828
    25  H    0.171556
    26  O   -0.657848
    27  O   -0.626787
    28  C   -0.407355
    29  O   -0.656199
    30  C   -0.411292
    31  C   -0.405836
    32  O   -0.708579
    33  C   -0.400880
    34  C   -0.408709
    35  C   -0.393211
    36  C   -0.211227
    37  C    0.135360
    38  C   -0.152150
    39  C   -0.200166
    40  C    0.098793
    41  C    0.130485
    42  C   -0.052460
    43  C    0.226806
    44  C   -0.142930
    45  C    0.105137
    46  C   -0.211174
    47  C    0.121519
    48  C    0.028321
    49  C   -0.150532
    50  C    0.002768
    51  C    0.229995
    52  C   -0.266542
    53  C   -0.009171
    54  C   -0.151422
    55  C   -0.052115
    56  C    0.032120
    57  C   -0.200789
    58  C   -0.142546
    59  C    0.100304
    60  C   -0.217450
    61  C    0.097025
    62  C    0.092732
    63  C   -0.210255
    64  C   -0.266682
    65  P    1.297814
    66  H    0.320975
    67  H    0.129755
    68  H    0.130832
    69  H    0.131722
    70  H    0.116172
    71  H    0.133457
    72  H    0.167726
    73  H    0.123239
    74  H    0.127036
    75  H    0.146403
    76  H    0.095524
    77  H    0.127293
    78  H    0.182557
    79  H    0.145413
    80  H    0.123930
    81  H    0.142208
    82  H    0.123111
    83  H    0.164249
    84  H    0.109676
    85  H    0.092437
    86  H    0.115297
    87  H    0.095015
    88  H    0.137482
    89  H    0.112163
    90  H    0.121991
    91  H    0.134380
    92  H    0.131280
    93  H    0.115210
    94  H    0.090468
    95  H    0.120731
    96  H    0.097910
    97  H    0.113158
    98  H    0.133506
    99  H    0.134261
   100  H    0.131877
   101  H    0.190892
   102  O   -0.558895
   103  C   -0.004431
   104  H    0.145021
   105  H    0.167252
   106  C    0.514221
   107  C    0.804062
   108  F   -0.274117
   109  F   -0.288276
   110  F   -0.269062
   111  F   -0.261646
   112  F   -0.254029
 Sum of Mulliken charges =  -0.00000

 Dipole moment (field-independent basis, Debye):
    X=              1.7661    Y=              4.5107    Z=              3.9403  Tot=              6.2444
 Quadrupole moment (field-independent basis, Debye-Ang):
   XX=           -408.1086   YY=           -369.4501   ZZ=           -362.0365
   XY=            -27.6018   XZ=             -7.2369   YZ=             12.4498

  Exact polarizability:       0.000       0.000       0.000       0.000       0.000       0.000
 Approx polarizability:     728.692     -43.163     654.021      -5.375      66.227     702.659

 Normal termination of Gaussian 16 at Sat Nov 12 08:12:26 2022.
