 Gaussian 16, Revision C.01,

 ------------------------------------------------------------
 #p irc=(calcfc,maxpoints=30,lqa,stepsize=8) 6-31g(d,p) m062x
 ------------------------------------------------------------

 -----
 TITLE
 -----
 Symbolic Z-matrix:
 Charge =  0 Multiplicity = 1

 SCF Done:  E(RM062X) =  -3557.96224822     A.U. after   16 cycles
 SCF Done:  E(RM062X) =  -3557.96237441     A.U. after   12 cycles
 SCF Done:  E(RM062X) =  -3557.96288041     A.U. after   12 cycles
 SCF Done:  E(RM062X) =  -3557.96386110     A.U. after   12 cycles
 SCF Done:  E(RM062X) =  -3557.96529853     A.U. after   12 cycles
 SCF Done:  E(RM062X) =  -3557.96702356     A.U. after   12 cycles
 SCF Done:  E(RM062X) =  -3557.96868376     A.U. after   12 cycles
 SCF Done:  E(RM062X) =  -3557.96996244     A.U. after   12 cycles
 SCF Done:  E(RM062X) =  -3557.97086303     A.U. after   11 cycles
 SCF Done:  E(RM062X) =  -3557.97152241     A.U. after   10 cycles
 Normal termination of Gaussian 16 at Sun Nov 13 02:13:51 2022.
 Gaussian 16:  ES64L-G16RevC.01  3-Jul-2019

 ----------------------------------------------------------------------
 #p irc=(restart,maxpoints=60,lqa,stepsize=15) 6-31g(d,p) m062x geom=al
 lcheck guess=read
 ----------------------------------------------------------------------

 SCF Done:  E(RM062X) =  -3557.97235700     A.U. after    9 cycles
 SCF Done:  E(RM062X) =  -3557.97237822     A.U. after   10 cycles
 SCF Done:  E(RM062X) =  -3557.97239741     A.U. after    9 cycles
 SCF Done:  E(RM062X) =  -3557.97241494     A.U. after    9 cycles
 SCF Done:  E(RM062X) =  -3557.97243081     A.U. after    9 cycles
 SCF Done:  E(RM062X) =  -3557.97244429     A.U. after   10 cycles
 SCF Done:  E(RM062X) =  -3557.97245393     A.U. after   10 cycles
 SCF Done:  E(RM062X) =  -3557.97246252     A.U. after   10 cycles
 SCF Done:  E(RM062X) =  -3557.97247055     A.U. after   10 cycles
 SCF Done:  E(RM062X) =  -3557.97248169     A.U. after   10 cycles

                          Input orientation:
 ---------------------------------------------------------------------
 Center     Atomic      Atomic             Coordinates (Angstroms)
 Number     Number       Type             X           Y           Z
 ---------------------------------------------------------------------
      1          8           0        0.237901    5.387596   -2.012160
      2          7           0       -1.594531    2.858667   -0.127604
      3          8           0       -1.667386    4.338048   -2.568465
      4          8           0       -3.480106    3.913324   -0.830379
      5          6           0        0.326211    4.236770    0.622426
      6          7           0       -6.197068   -1.222645    1.900754
      7          6           0       -5.311378   -0.183133    1.366257
      8          6           0       -0.706150    4.491899   -1.663760
      9          6           0       -3.745999    1.856294    0.344419
     10          6           0       -0.620745    3.838954   -0.479645
     11          6           0       -2.924222    2.962349   -0.254263
     12          6           0       -3.156220    0.810532    1.051902
     13          6           0       -5.905097    0.866962    0.677431
     14          6           0       -5.126912    1.893760    0.160944
     15          6           0       -3.919335   -0.245077    1.548066
     16          8           0       -7.242224   -1.414921    1.302475
     17          8           0       -5.850130   -1.797826    2.911625
     18          1           0       -0.070739    5.814578   -2.822046
     19          1           0       -1.208227    1.959670    0.152292
     20          1           0       -2.522769    4.207795   -2.050528
     21          1           0        0.728211    3.364038    1.148153
     22          1           0        1.172843    4.796907    0.220888
     23          1           0       -0.183333    4.862272    1.364978
     24          1           0       -2.087740    0.781519    1.203475
     25          1           0       -5.566722    2.723536   -0.379345
     26          8           0        1.689304    1.913483   -0.762995
     27          8           0        1.492190   -0.227501   -1.912497
     28          6           0       -4.010056    2.242668   -3.601750
     29          8           0        2.168304   -0.218296    0.535122
     30          6           0        0.480878    0.236582   -4.572170
     31          6           0        2.063534    4.858313    4.422658
     32          8           0       -0.231102    0.321740   -0.000735
     33          6           0        4.261848    3.687295    0.061176
     34          6           0        3.144340    0.041904    3.437214
     35          6           0       -2.724479   -2.008143   -1.273382
     36          6           0       -3.262219    0.114058   -2.468263
     37          6           0        2.090516   -2.525357   -1.646783
     38          6           0        0.501935   -4.264410   -2.190448
     39          6           0       -1.752421    1.178249   -3.981727
     40          6           0       -2.984357    1.171669   -3.334887
     41          6           0        4.108679   -1.137860   -0.547047
     42          6           0       -1.097721   -0.878234   -2.893165
     43          6           0        1.169961   -1.577896   -2.060323
     44          6           0        3.529959   -2.392367   -1.184140
     45          6           0       -0.808165    0.167913   -3.788558
     46          6           0        4.505633   -2.568332   -2.384455
     47          6           0       -2.346006   -0.908734   -2.235334
     48          6           0        1.717833   -3.872223   -1.647852
     49          6           0       -0.371670   -3.293178   -2.674912
     50          6           0        4.297991    0.849997    0.855744
     51          6           0        3.541251   -0.175720    0.276302
     52          6           0        5.868065   -2.098964   -1.849557
     53          6           0       -0.085694   -1.926269   -2.574083
     54          6           0        6.252794   -0.030189   -0.302208
     55          6           0        3.691025    1.872128    1.757906
     56          6           0        5.468838   -1.030550   -0.859623
     57          6           0        2.634229    2.464889    3.845925
     58          6           0        5.665406    0.888291    0.562977
     59          6           0        3.150329    1.484668    2.996816
     60          6           0        3.203506    4.177464    2.279299
     61          6           0        3.715111    3.231093    1.392638
     62          6           0        2.650939    3.815609    3.506775
     63          6           0        3.623650   -3.628025   -0.245448
     64          6           0        2.765734   -4.703501   -0.942868
     65         15           0        1.154658    0.451492   -0.502462
     66          1           0        0.989905    2.562861   -0.996192
     67          1           0       -3.547224    3.125457   -4.049557
     68          1           0       -4.776978    1.877714   -4.292968
     69          1           0       -4.512904    2.550535   -2.680796
     70          1           0        0.286977    0.615782   -5.578602
     71          1           0        0.955230   -0.743149   -4.661956
     72          1           0        1.199486    0.906582   -4.091311
     73          1           0        1.981564    4.486647    5.446561
     74          1           0        2.675281    5.764145    4.434390
     75          1           0        1.059591    5.145490    4.091800
     76          1           0        3.879096    4.681444   -0.183800
     77          1           0        5.355006    3.750183    0.071083
     78          1           0        3.977213    2.999786   -0.738371
     79          1           0        2.375336   -0.530843    2.911356
     80          1           0        2.947751   -0.030027    4.508960
     81          1           0        4.105776   -0.437760    3.232579
     82          1           0       -3.153832   -2.870679   -1.794426
     83          1           0       -1.864253   -2.376231   -0.713093
     84          1           0       -3.484248   -1.657562   -0.570837
     85          1           0       -4.220604    0.085793   -1.951674
     86          1           0        0.218614   -5.312283   -2.214644
     87          1           0       -1.518787    1.990907   -4.666231
     88          1           0        4.179671   -1.907064   -3.194255
     89          1           0        4.509892   -3.593350   -2.764541
     90          1           0       -1.326681   -3.589251   -3.096681
     91          1           0        6.525534   -1.716168   -2.634502
     92          1           0        6.402784   -2.914721   -1.347813
     93          1           0        7.309199    0.041289   -0.542735
     94          1           0        2.221196    2.162562    4.805815
     95          1           0        6.265838    1.669684    1.018942
     96          1           0        3.221493    5.227909    1.994065
     97          1           0        4.657248   -3.937416   -0.067093
     98          1           0        3.173192   -3.364796    0.718119
     99          1           0        2.315407   -5.403759   -0.233727
    100          1           0        3.357413   -5.293953   -1.652351
    101          1           0       -6.981082    0.847951    0.552945
    102          8           0       -3.368414   -1.332884    2.127687
    103          6           0       -1.962404   -1.454012    2.050001
    104          1           0       -1.572815   -1.132478    1.079232
    105          1           0       -1.467883   -0.877932    2.840909
    106          6           0       -1.630832   -2.920031    2.229218
    107          6           0       -0.143438   -3.193629    1.966365
    108          9           0       -1.907719   -3.345954    3.477608
    109          9           0       -2.331745   -3.675701    1.358341
    110          9           0        0.181260   -2.825722    0.722938
    111          9           0        0.606985   -2.491833    2.820746
    112          9           0        0.134784   -4.484045    2.112754
 ---------------------------------------------------------------------

 Alpha  occ. eigenvalues --  -78.23925 -25.31071 -25.31025 -25.30780 -25.28675
 Alpha  occ. eigenvalues --  -25.28443 -19.70482 -19.70406 -19.70095 -19.69381
 Alpha  occ. eigenvalues --  -19.68552 -19.67131 -19.66890 -19.66651 -19.63693
 Alpha  occ. eigenvalues --  -19.63613 -15.00830 -14.80567 -10.82037 -10.74467
 Alpha  occ. eigenvalues --  -10.67809 -10.67778 -10.65513 -10.63175 -10.62986
 Alpha  occ. eigenvalues --  -10.62580 -10.62148 -10.59287 -10.58663 -10.58490
 Alpha  occ. eigenvalues --  -10.58095 -10.58030 -10.57392 -10.57129 -10.56969
 Alpha  occ. eigenvalues --  -10.56848 -10.56751 -10.56575 -10.56447 -10.56393
 Alpha  occ. eigenvalues --  -10.56122 -10.56117 -10.56061 -10.56018 -10.55924
 Alpha  occ. eigenvalues --  -10.55891 -10.55877 -10.55867 -10.55815 -10.55614
 Alpha  occ. eigenvalues --  -10.55584 -10.55392 -10.55362 -10.55215 -10.54978
 Alpha  occ. eigenvalues --  -10.54777 -10.54368 -10.54190 -10.54146 -10.53828
 Alpha  occ. eigenvalues --  -10.53646 -10.53516 -10.53502 -10.53499 -10.53405
 Alpha  occ. eigenvalues --  -10.53364  -7.01933  -5.13728  -5.13698  -5.13598
 Alpha  occ. eigenvalues --   -1.48355  -1.42143  -1.38897  -1.38786  -1.36154
 Alpha  occ. eigenvalues --   -1.35891  -1.25858  -1.23955  -1.22920  -1.19793
 Alpha  occ. eigenvalues --   -1.18503  -1.18291  -1.17427  -1.14995  -1.11566
 Alpha  occ. eigenvalues --   -1.05569  -1.00884  -1.00273  -0.98480  -0.97127
 Alpha  occ. eigenvalues --   -0.96244  -0.93865  -0.93183  -0.91960  -0.91256
 Alpha  occ. eigenvalues --   -0.88448  -0.88265  -0.87830  -0.87550  -0.87472
 Alpha  occ. eigenvalues --   -0.87354  -0.86786  -0.85094  -0.83688  -0.82899
 Alpha  occ. eigenvalues --   -0.82505  -0.80893  -0.80383  -0.79070  -0.78682
 Alpha  occ. eigenvalues --   -0.78143  -0.77217  -0.77073  -0.76710  -0.76571
 Alpha  occ. eigenvalues --   -0.76074  -0.74537  -0.73299  -0.72585  -0.72393
 Alpha  occ. eigenvalues --   -0.71997  -0.71598  -0.70961  -0.69866  -0.68922
 Alpha  occ. eigenvalues --   -0.68491  -0.68408  -0.67957  -0.67828  -0.66070
 Alpha  occ. eigenvalues --   -0.65977  -0.65856  -0.65265  -0.65179  -0.64911
 Alpha  occ. eigenvalues --   -0.64724  -0.63662  -0.63297  -0.62836  -0.62258
 Alpha  occ. eigenvalues --   -0.61932  -0.61804  -0.59852  -0.59387  -0.58991
 Alpha  occ. eigenvalues --   -0.58600  -0.58546  -0.58227  -0.58013  -0.57663
 Alpha  occ. eigenvalues --   -0.57568  -0.57237  -0.56948  -0.56436  -0.56089
 Alpha  occ. eigenvalues --   -0.55781  -0.55499  -0.55191  -0.55036  -0.54814
 Alpha  occ. eigenvalues --   -0.54187  -0.53821  -0.53643  -0.53474  -0.52913
 Alpha  occ. eigenvalues --   -0.52708  -0.52665  -0.52163  -0.52149  -0.52097
 Alpha  occ. eigenvalues --   -0.51421  -0.51195  -0.50973  -0.50688  -0.50306
 Alpha  occ. eigenvalues --   -0.49803  -0.49496  -0.49379  -0.49022  -0.48914
 Alpha  occ. eigenvalues --   -0.48744  -0.48385  -0.48310  -0.48260  -0.47572
 Alpha  occ. eigenvalues --   -0.47455  -0.47260  -0.47094  -0.46883  -0.46748
 Alpha  occ. eigenvalues --   -0.46553  -0.46447  -0.46270  -0.46138  -0.45993
 Alpha  occ. eigenvalues --   -0.45861  -0.45707  -0.45618  -0.45528  -0.45421
 Alpha  occ. eigenvalues --   -0.45290  -0.44936  -0.44525  -0.44453  -0.44149
 Alpha  occ. eigenvalues --   -0.43748  -0.43221  -0.42878  -0.42679  -0.42564
 Alpha  occ. eigenvalues --   -0.42331  -0.42026  -0.41861  -0.41341  -0.41200
 Alpha  occ. eigenvalues --   -0.40909  -0.40712  -0.40543  -0.39964  -0.39869
 Alpha  occ. eigenvalues --   -0.39663  -0.39420  -0.39234  -0.38715  -0.38453
 Alpha  occ. eigenvalues --   -0.38124  -0.37874  -0.37774  -0.37434  -0.37057
 Alpha  occ. eigenvalues --   -0.36596  -0.36223  -0.35201  -0.33704  -0.31259
 Alpha  occ. eigenvalues --   -0.30943  -0.30675  -0.30594  -0.29366  -0.28653
 Alpha  occ. eigenvalues --   -0.27923  -0.27630  -0.26978  -0.26434
 Alpha virt. eigenvalues --   -0.05189   0.00605   0.00681   0.01205   0.01423
 Alpha virt. eigenvalues --    0.01525   0.02063   0.03800   0.04340   0.04563
 Alpha virt. eigenvalues --    0.05328   0.06690   0.07923   0.09540   0.10095

 Mulliken charges:
               1
     1  O   -0.553215
     2  N   -0.618391
     3  O   -0.603940
     4  O   -0.610784
     5  C   -0.345721
     6  N    0.390120
     7  C    0.177415
     8  C    0.570615
     9  C    0.026054
    10  C   -0.007452
    11  C    0.631174
    12  C   -0.170488
    13  C   -0.109780
    14  C   -0.153043
    15  C    0.369131
    16  O   -0.401920
    17  O   -0.372785
    18  H    0.356674
    19  H    0.344858
    20  H    0.412536
    21  H    0.131683
    22  H    0.141829
    23  H    0.144031
    24  H    0.148197
    25  H    0.168215
    26  O   -0.595815
    27  O   -0.616025
    28  C   -0.409265
    29  O   -0.616573
    30  C   -0.395739
    31  C   -0.408648
    32  O   -0.616277
    33  C   -0.397663
    34  C   -0.414082
    35  C   -0.382583
    36  C   -0.186888
    37  C    0.134332
    38  C   -0.142816
    39  C   -0.180660
    40  C    0.088438
    41  C    0.141071
    42  C   -0.044200
    43  C    0.199472
    44  C   -0.148724
    45  C    0.077333
    46  C   -0.211554
    47  C    0.105450
    48  C    0.027090
    49  C   -0.155833
    50  C   -0.001828
    51  C    0.203929
    52  C   -0.266251
    53  C    0.007194
    54  C   -0.144427
    55  C   -0.058115
    56  C    0.023660
    57  C   -0.199215
    58  C   -0.145114
    59  C    0.104449
    60  C   -0.199700
    61  C    0.095693
    62  C    0.100007
    63  C   -0.208287
    64  C   -0.266503
    65  P    1.317198
    66  H    0.382806
    67  H    0.132673
    68  H    0.142828
    69  H    0.125711
    70  H    0.128034
    71  H    0.126950
    72  H    0.148839
    73  H    0.131150
    74  H    0.135674
    75  H    0.142725
    76  H    0.123724
    77  H    0.132170
    78  H    0.152294
    79  H    0.156562
    80  H    0.124654
    81  H    0.135358
    82  H    0.141543
    83  H    0.114458
    84  H    0.108473
    85  H    0.089975
    86  H    0.126790
    87  H    0.103309
    88  H    0.137921
    89  H    0.119396
    90  H    0.130967
    91  H    0.139724
    92  H    0.137424
    93  H    0.124742
    94  H    0.102545
    95  H    0.130933
    96  H    0.100933
    97  H    0.118771
    98  H    0.132719
    99  H    0.143264
   100  H    0.136016
   101  H    0.180024
   102  O   -0.537636
   103  C   -0.027838
   104  H    0.177160
   105  H    0.161549
   106  C    0.518313
   107  C    0.811938
   108  F   -0.281558
   109  F   -0.276889
   110  F   -0.243154
   111  F   -0.262548
   112  F   -0.258960
 Sum of Mulliken charges =  -0.00000

 Dipole moment (field-independent basis, Debye):
    X=              7.5846    Y=              2.0009    Z=             -2.6984  Tot=              8.2953
 Quadrupole moment (field-independent basis, Debye-Ang):
   XX=           -394.9467   YY=           -368.1573   ZZ=           -383.0653
   XY=            -22.0582   XZ=              7.2298   YZ=              9.9693

  Exact polarizability:       0.000       0.000       0.000       0.000       0.000       0.000
 Approx polarizability:     743.853     -13.259     747.936     -16.920     -59.792     608.749

 Normal termination of Gaussian 16 at Sun Nov 13 08:34:17 2022.
