 Gaussian 16, Revision C.01,
 Gaussian 16:  ES64L-G16RevC.01  3-Jul-2019

 -------------------------------------------------
 #p 6-31g(d,p) m062x irc=(calcfc,maxpoints=30,LQA)
 -------------------------------------------------

 -----
 TITLE
 -----
 Symbolic Z-matrix:
 Charge =  0 Multiplicity = 1

 SCF Done:  E(RM062X) =  -2868.84397059     A.U. after   15 cycles
 SCF Done:  E(RM062X) =  -2868.84405738     A.U. after   12 cycles
 SCF Done:  E(RM062X) =  -2868.84424091     A.U. after   12 cycles
 SCF Done:  E(RM062X) =  -2868.84444930     A.U. after   11 cycles
 SCF Done:  E(RM062X) =  -2868.84464871     A.U. after   11 cycles
 SCF Done:  E(RM062X) =  -2868.84483974     A.U. after   11 cycles
 SCF Done:  E(RM062X) =  -2868.84502529     A.U. after   12 cycles
 SCF Done:  E(RM062X) =  -2868.84522346     A.U. after   10 cycles
 SCF Done:  E(RM062X) =  -2868.84541171     A.U. after   11 cycles
 SCF Done:  E(RM062X) =  -2868.84559444     A.U. after   10 cycles
 SCF Done:  E(RM062X) =  -2868.86221902     A.U. after   10 cycles
 SCF Done:  E(RM062X) =  -2868.86272331     A.U. after   10 cycles
 SCF Done:  E(RM062X) =  -2868.86319625     A.U. after   10 cycles
 SCF Done:  E(RM062X) =  -2868.86363477     A.U. after    9 cycles
 SCF Done:  E(RM062X) =  -2868.86404924     A.U. after    9 cycles
 SCF Done:  E(RM062X) =  -2868.86443962     A.U. after    9 cycles
 SCF Done:  E(RM062X) =  -2868.86481240     A.U. after   10 cycles
 SCF Done:  E(RM062X) =  -2868.86516844     A.U. after    9 cycles
 SCF Done:  E(RM062X) =  -2868.86551085     A.U. after    9 cycles
 SCF Done:  E(RM062X) =  -2868.86584080     A.U. after   10 cycles

                          Input orientation:
 ---------------------------------------------------------------------
 Center     Atomic      Atomic             Coordinates (Angstroms)
 Number     Number       Type             X           Y           Z
 ---------------------------------------------------------------------
      1          8           0        0.092496    1.708274    2.952770
      2          7           0        2.682773    1.423276    0.373106
      3          8           0        2.235142    1.403259    3.334362
      4          8           0        4.279499    1.767186    1.961245
      5          6           0        0.786188    3.018353    0.407833
      6          7           0        8.030045   -0.363192   -2.750696
      7          6           0        6.967024    0.111801   -1.845257
      8          6           0        1.252096    1.653506    2.532226
      9          6           0        4.986939    0.988886   -0.162406
     10          6           0        1.426651    1.776760    1.032930
     11          6           0        3.941759    1.437614    0.811832
     12          6           0        6.156834    0.443419    0.369024
     13          6           0        5.824319    0.667353   -2.402686
     14          6           0        4.825237    1.109797   -1.545315
     15          6           0        7.160041   -0.009338   -0.476260
     16          8           0        9.022203   -0.846536   -2.241012
     17          8           0        7.842169   -0.239562   -3.945764
     18          1           0        0.798455    0.943360    0.719731
     19          1           0        2.509806    0.922888   -0.491915
     20          1           0        3.128965    1.562814    2.866698
     21          1           0        0.635834    2.836362   -0.659853
     22          1           0       -0.197847    3.198017    0.846991
     23          1           0        1.408606    3.907905    0.535274
     24          1           0        6.263150    0.385171    1.446597
     25          1           0        5.739082    0.750328   -3.478603
     26          1           0        3.936772    1.575580   -1.959867
     27          1           0        8.076691   -0.446599   -0.101499
     28          1           0       -0.986081    1.363981    2.039219
     29          8           0       -0.073312   -0.069815   -0.323687
     30          8           0       -2.423507    0.256141   -0.955442
     31          6           0       -1.154387    6.343213   -0.788295
     32          8           0       -1.914850   -1.352363    0.961612
     33          6           0       -3.123739    2.325476   -3.098810
     34          6           0        3.741183   -1.264516    3.863430
     35          8           0       -1.734120    1.086766    1.362508
     36          6           0        2.152047   -2.067406   -0.833654
     37          6           0       -0.832238   -3.223867    3.132514
     38          6           0       -4.063901    3.189587    1.824886
     39          6           0       -2.638495    4.715233    0.436189
     40          6           0       -4.484595   -0.915575   -0.677715
     41          6           0       -6.491380    0.337085   -0.163038
     42          6           0       -2.186986    4.306003   -1.875363
     43          6           0       -2.007428    5.100871   -0.747525
     44          6           0       -2.633573   -2.853922   -0.747504
     45          6           0       -3.592895    2.777107   -0.641431
     46          6           0       -3.788879    0.281176   -0.738016
     47          6           0       -4.052908   -2.349167   -0.954539
     48          6           0       -2.968354    3.148020   -1.844003
     49          6           0       -4.263539   -2.733904   -2.448373
     50          6           0       -3.427119    3.568975    0.510972
     51          6           0       -5.838881   -0.877459   -0.336409
     52          6           0       -5.777482    1.527021   -0.303317
     53          6           0       -0.412192   -3.103142    0.227069
     54          6           0       -1.660774   -2.467482    0.160102
     55          6           0       -3.491986   -4.055847   -2.621218
     56          6           0       -4.405512    1.524979   -0.570002
     57          6           0       -1.141659   -4.566196   -1.584143
     58          6           0        0.658376   -2.638648    1.158887
     59          6           0       -2.350781   -3.887669   -1.645594
     60          6           0        1.451196   -2.222950    3.404119
     61          6           0       -0.192455   -4.177660   -0.640618
     62          6           0        0.449135   -2.682932    2.548604
     63          6           0        2.856139   -1.714714    1.541810
     64          6           0        1.879211   -2.154940    0.648818
     65          6           0        2.662898   -1.734123    2.922026
     66          6           0       -5.075837   -3.113567   -0.067676
     67          6           0       -6.370046   -2.283143   -0.167838
     68         15           0       -1.423326    0.023554    0.273609
     69          1           0       -0.723617    6.496769   -1.780161
     70          1           0       -1.739718    7.231558   -0.532476
     71          1           0       -0.332829    6.278074   -0.067740
     72          1           0       -2.501582    1.426308   -3.052433
     73          1           0       -2.823915    2.902847   -3.976121
     74          1           0       -4.159192    2.002061   -3.236597
     75          1           0        4.415138   -0.559970    3.366740
     76          1           0        3.308743   -0.759856    4.730300
     77          1           0        4.340883   -2.106837    4.223972
     78          1           0        2.372213   -3.047053   -1.268933
     79          1           0        1.292475   -1.646762   -1.359450
     80          1           0        3.028907   -1.435443   -1.016294
     81          1           0       -1.156331   -4.127152    2.608441
     82          1           0       -1.639193   -2.489471    3.052710
     83          1           0       -0.697877   -3.467546    4.188445
     84          1           0       -3.609669    3.752520    2.643305
     85          1           0       -5.137399    3.403970    1.829225
     86          1           0       -3.936677    2.123940    2.026807
     87          1           0       -2.505241    5.320204    1.331112
     88          1           0       -7.546235    0.363096    0.093404
     89          1           0       -1.710704    4.592506   -2.810662
     90          1           0       -3.809423   -1.958173   -3.074047
     91          1           0       -5.322784   -2.805882   -2.710586
     92          1           0       -6.280952    2.481008   -0.178028
     93          1           0       -3.146271   -4.215021   -3.645998
     94          1           0       -4.114260   -4.918051   -2.351660
     95          1           0       -0.925967   -5.375875   -2.274803
     96          1           0        1.278649   -2.249783    4.477672
     97          1           0        0.759740   -4.696572   -0.583936
     98          1           0        3.803514   -1.350002    1.144631
     99          1           0       -5.197242   -4.154579   -0.380215
    100          1           0       -4.711737   -3.107135    0.965086
    101          1           0       -7.007004   -2.383682    0.714931
    102          1           0       -6.970173   -2.583800   -1.035318
 ---------------------------------------------------------------------

 Alpha  occ. eigenvalues --  -78.21514 -19.68914 -19.68900 -19.68640 -19.68540
 Alpha  occ. eigenvalues --  -19.67635 -19.66079 -19.65758 -19.64489 -19.60905
 Alpha  occ. eigenvalues --  -15.02482 -14.82830 -10.70421 -10.70036 -10.63635
 Alpha  occ. eigenvalues --  -10.61708 -10.61694 -10.60890 -10.60405 -10.60199
 Alpha  occ. eigenvalues --  -10.60199 -10.59985 -10.59672 -10.57796 -10.56238
 Alpha  occ. eigenvalues --  -10.56140 -10.55984 -10.55958 -10.55905 -10.55880
 Alpha  occ. eigenvalues --  -10.55640 -10.55574 -10.55550 -10.55534 -10.55344
 Alpha  occ. eigenvalues --  -10.55336 -10.55330 -10.55314 -10.55301 -10.55241
 Alpha  occ. eigenvalues --  -10.55186 -10.55180 -10.55108 -10.55083 -10.54932
 Alpha  occ. eigenvalues --  -10.54826 -10.54809 -10.54102 -10.53701 -10.53660
 Alpha  occ. eigenvalues --  -10.53510 -10.53480 -10.53419 -10.53332 -10.53187
 Alpha  occ. eigenvalues --  -10.52881 -10.52847  -6.99580  -5.11382  -5.11329
 Alpha  occ. eigenvalues --   -5.11245  -1.37977  -1.24301  -1.23907  -1.20375
 Alpha  occ. eigenvalues --   -1.19385  -1.18434  -1.15906  -1.13860  -1.09417
 Alpha  occ. eigenvalues --   -1.07528  -1.01989  -1.00068  -0.97712  -0.96585
 Alpha  occ. eigenvalues --   -0.95828  -0.93714  -0.93200  -0.90639  -0.89469
 Alpha  occ. eigenvalues --   -0.88907  -0.87945  -0.87201  -0.87163  -0.87079
 Alpha  occ. eigenvalues --   -0.85878  -0.84157  -0.82465  -0.82277  -0.81973
 Alpha  occ. eigenvalues --   -0.79503  -0.78479  -0.78413  -0.76557  -0.76350
 Alpha  occ. eigenvalues --   -0.76173  -0.75945  -0.75931  -0.74503  -0.74003
 Alpha  occ. eigenvalues --   -0.73170  -0.71719  -0.71142  -0.70104  -0.69801
 Alpha  occ. eigenvalues --   -0.67910  -0.67680  -0.67219  -0.66921  -0.64977
 Alpha  occ. eigenvalues --   -0.64793  -0.64530  -0.64431  -0.64145  -0.63675
 Alpha  occ. eigenvalues --   -0.63158  -0.62663  -0.61568  -0.61195  -0.61052
 Alpha  occ. eigenvalues --   -0.58266  -0.57995  -0.57536  -0.56915  -0.56584
 Alpha  occ. eigenvalues --   -0.56056  -0.56009  -0.55702  -0.55432  -0.55315
 Alpha  occ. eigenvalues --   -0.54694  -0.54126  -0.53984  -0.53610  -0.53463
 Alpha  occ. eigenvalues --   -0.53333  -0.52651  -0.52367  -0.51492  -0.51210
 Alpha  occ. eigenvalues --   -0.50354  -0.50017  -0.49806  -0.49186  -0.48878
 Alpha  occ. eigenvalues --   -0.48782  -0.48704  -0.48308  -0.48141  -0.48082
 Alpha  occ. eigenvalues --   -0.47734  -0.47578  -0.47003  -0.46938  -0.46704
 Alpha  occ. eigenvalues --   -0.46590  -0.46101  -0.46041  -0.45862  -0.45692
 Alpha  occ. eigenvalues --   -0.45542  -0.45514  -0.45324  -0.45102  -0.45011
 Alpha  occ. eigenvalues --   -0.44900  -0.44782  -0.44340  -0.43890  -0.43757
 Alpha  occ. eigenvalues --   -0.43402  -0.43160  -0.42374  -0.42010  -0.41754
 Alpha  occ. eigenvalues --   -0.41633  -0.41570  -0.41416  -0.40135  -0.39876
 Alpha  occ. eigenvalues --   -0.39718  -0.39693  -0.39252  -0.39066  -0.39033
 Alpha  occ. eigenvalues --   -0.38886  -0.38868  -0.38723  -0.38471  -0.38307
 Alpha  occ. eigenvalues --   -0.37996  -0.37886  -0.37702  -0.37210  -0.37103
 Alpha  occ. eigenvalues --   -0.36675  -0.35898  -0.35571  -0.34977  -0.33709
 Alpha  occ. eigenvalues --   -0.30429  -0.30102  -0.29773  -0.28639  -0.28036
 Alpha  occ. eigenvalues --   -0.27981  -0.26974  -0.26694
 Alpha virt. eigenvalues --   -0.07095  -0.01432   0.00307   0.01400   0.01489
 Alpha virt. eigenvalues --    0.02362   0.02745   0.04306   0.04531   0.04612
 Alpha virt. eigenvalues --    0.05127   0.05380   0.07524   0.08815   0.10821

 Mulliken charges:
               1
     1  O   -0.564650
     2  N   -0.567512
     3  O   -0.527841
     4  O   -0.594128
     5  C   -0.323723
     6  N    0.424509
     7  C    0.201367
     8  C    0.681179
     9  C    0.011755
    10  C   -0.094201
    11  C    0.606681
    12  C   -0.128810
    13  C   -0.110167
    14  C   -0.149207
    15  C   -0.109668
    16  O   -0.397301
    17  O   -0.400107
    18  H    0.198144
    19  H    0.314409
    20  H    0.424124
    21  H    0.138665
    22  H    0.149259
    23  H    0.131818
    24  H    0.176845
    25  H    0.188992
    26  H    0.154176
    27  H    0.189961
    28  H    0.461267
    29  O   -0.627441
    30  O   -0.609358
    31  C   -0.407924
    32  O   -0.624032
    33  C   -0.412482
    34  C   -0.405440
    35  O   -0.645792
    36  C   -0.393537
    37  C   -0.410207
    38  C   -0.396482
    39  C   -0.205596
    40  C    0.137559
    41  C   -0.147253
    42  C   -0.201849
    43  C    0.099966
    44  C    0.135715
    45  C   -0.057287
    46  C    0.210150
    47  C   -0.142469
    48  C    0.105927
    49  C   -0.212082
    50  C    0.113395
    51  C    0.026678
    52  C   -0.151669
    53  C    0.013239
    54  C    0.206940
    55  C   -0.266456
    56  C   -0.004466
    57  C   -0.148375
    58  C   -0.060473
    59  C    0.029532
    60  C   -0.188621
    61  C   -0.150282
    62  C    0.095835
    63  C   -0.199083
    64  C    0.114618
    65  C    0.102770
    66  C   -0.211989
    67  C   -0.267291
    68  P    1.321913
    69  H    0.125456
    70  H    0.142438
    71  H    0.134141
    72  H    0.162406
    73  H    0.120426
    74  H    0.134295
    75  H    0.110113
    76  H    0.148620
    77  H    0.139977
    78  H    0.130659
    79  H    0.170695
    80  H    0.082046
    81  H    0.132230
    82  H    0.163726
    83  H    0.123360
    84  H    0.125015
    85  H    0.127355
    86  H    0.156830
    87  H    0.102470
    88  H    0.120642
    89  H    0.097388
    90  H    0.137050
    91  H    0.116114
    92  H    0.127504
    93  H    0.137360
    94  H    0.135006
    95  H    0.120766
    96  H    0.105983
    97  H    0.126475
    98  H    0.063047
    99  H    0.116017
   100  H    0.139088
   101  H    0.138803
   102  H    0.134363
 Sum of Mulliken charges =  -0.00000

 Dipole moment (field-independent basis, Debye):
    X=             -3.2670    Y=             -0.3180    Z=             -1.8024  Tot=              3.7448
 Quadrupole moment (field-independent basis, Debye-Ang):
   XX=           -345.3523   YY=           -322.0134   ZZ=           -347.5189
   XY=             17.3011   XZ=             16.9960   YZ=             -3.1047

  Exact polarizability:       0.000       0.000       0.000       0.000       0.000       0.000
 Approx polarizability:     707.243      11.726     568.647      -0.619      49.333     662.625

 Normal termination of Gaussian 16 at Sat Oct 29 18:31:58 2022.
