 Gaussian 16, Revision C.01,
 Gaussian 16:  ES64L-G16RevC.01  3-Jul-2019

 ------------------------------------------------------------
 #p irc=(calcfc,maxpoints=30,lqa,maxstep=15) 6-31g(d,p) m062x
 ------------------------------------------------------------

 -----
 TITLE
 -----
 Symbolic Z-matrix:
 Charge =  0 Multiplicity = 1

 SCF Done:  E(RM062X) =  -1060.76705702     A.U. after   15 cycles
 SCF Done:  E(RM062X) =  -1060.76708169     A.U. after   12 cycles
 SCF Done:  E(RM062X) =  -1060.76716629     A.U. after   12 cycles
 SCF Done:  E(RM062X) =  -1060.76731928     A.U. after   12 cycles
 SCF Done:  E(RM062X) =  -1060.76753831     A.U. after   12 cycles
 SCF Done:  E(RM062X) =  -1060.76781187     A.U. after   12 cycles
 SCF Done:  E(RM062X) =  -1060.76814270     A.U. after   12 cycles
 SCF Done:  E(RM062X) =  -1060.76853078     A.U. after   12 cycles
 SCF Done:  E(RM062X) =  -1060.76899843     A.U. after   12 cycles
 SCF Done:  E(RM062X) =  -1060.76955341     A.U. after   12 cycles
 SCF Done:  E(RM062X) =  -1060.77259736     A.U. after   13 cycles
 SCF Done:  E(RM062X) =  -1060.77345987     A.U. after   13 cycles
 SCF Done:  E(RM062X) =  -1060.77463429     A.U. after   13 cycles
 SCF Done:  E(RM062X) =  -1060.77626275     A.U. after   13 cycles
 SCF Done:  E(RM062X) =  -1060.77788187     A.U. after   13 cycles
 SCF Done:  E(RM062X) =  -1060.77923287     A.U. after   12 cycles
 SCF Done:  E(RM062X) =  -1060.78049219     A.U. after   12 cycles
 SCF Done:  E(RM062X) =  -1060.78169171     A.U. after   12 cycles
 SCF Done:  E(RM062X) =  -1060.78285279     A.U. after   12 cycles
 SCF Done:  E(RM062X) =  -1060.78397195     A.U. after   12 cycles

                          Input orientation:
 ---------------------------------------------------------------------
 Center     Atomic      Atomic             Coordinates (Angstroms)
 Number     Number       Type             X           Y           Z
 ---------------------------------------------------------------------
      1          7           0        1.257154    0.626420    0.074182
      2          8           0        2.549525   -1.516931   -1.304657
      3          8           0        4.731370    0.541168    1.140648
      4          6           0        3.116391    2.150911   -0.452856
      5          8           0        0.876899   -1.462080    0.977398
      6          8           0        3.162099   -0.955262    1.640523
      7          8           0        3.817068    0.148749   -2.315575
      8          6           0       -1.563427    1.058563    0.464892
      9          6           0       -0.978972   -0.195154    0.277214
     10          6           0       -1.764168   -1.308834   -0.025988
     11          6           0        3.173195   -0.610135   -1.702267
     12          6           0        2.669690    0.844428    0.130952
     13          6           0       -2.934967    1.214290    0.328433
     14          6           0       -3.688538    0.097497    0.002064
     15          6           0        3.464329    0.129618    0.972170
     16          6           0        0.485152   -0.397903    0.468632
     17          6           0       -3.135677   -1.164084   -0.179439
     18          1           0        0.762326    1.366896   -0.402040
     19          1           0        2.235944   -1.308392    1.367388
     20          1           0        5.178273   -0.135644    1.665571
     21          1           0        4.184745    2.117558   -0.661984
     22          1           0        2.610785    2.347830   -1.403989
     23          1           0        2.922261    2.987433    0.228381
     24          1           0       -0.958318    1.908995    0.763041
     25          1           0       -1.284938   -2.275293   -0.133609
     26          1           0       -3.426382    2.166482    0.481343
     27          1           0       -3.779752   -1.998647   -0.426171
     28          7           0       -5.145744    0.261694   -0.139764
     29          8           0       -5.794347   -0.724699   -0.429838
     30          8           0       -5.602354    1.374477    0.042872
 ---------------------------------------------------------------------

 Alpha  occ. eigenvalues --  -19.70247 -19.70029 -19.68870 -19.68720 -19.68677
 Alpha  occ. eigenvalues --  -19.66071 -19.64975 -15.02279 -14.83632 -10.73261
 Alpha  occ. eigenvalues --  -10.69296 -10.68150 -10.63304 -10.60559 -10.60071
 Alpha  occ. eigenvalues --  -10.59931 -10.59772 -10.59361 -10.58669 -10.55689
 Alpha  occ. eigenvalues --   -1.37768  -1.26714  -1.24485  -1.21277  -1.20065
 Alpha  occ. eigenvalues --   -1.19167  -1.15111  -1.08164  -1.01768  -0.93559
 Alpha  occ. eigenvalues --   -0.89617  -0.88909  -0.82499  -0.79143  -0.74859
 Alpha  occ. eigenvalues --   -0.73939  -0.69701  -0.69419  -0.67195  -0.66480
 Alpha  occ. eigenvalues --   -0.63921  -0.63483  -0.63095  -0.61146  -0.60361
 Alpha  occ. eigenvalues --   -0.59167  -0.58200  -0.57855  -0.56297  -0.55644
 Alpha  occ. eigenvalues --   -0.54066  -0.53665  -0.53268  -0.52197  -0.51826
 Alpha  occ. eigenvalues --   -0.49384  -0.48788  -0.48398  -0.47493  -0.46367
 Alpha  occ. eigenvalues --   -0.44912  -0.44574  -0.42314  -0.41651  -0.40976
 Alpha  occ. eigenvalues --   -0.39804  -0.39412  -0.38676  -0.38545  -0.37056
 Alpha  occ. eigenvalues --   -0.35138  -0.34625  -0.25066
 Alpha virt. eigenvalues --   -0.06686  -0.01101   0.00526   0.05209   0.07763
 Alpha virt. eigenvalues --    0.09592   0.10038   0.11751   0.12233   0.12979
 Alpha virt. eigenvalues --    0.16492   0.17283   0.17573   0.18359   0.19195

 Mulliken charges:
               1
     1  N   -0.593918
     2  O   -0.412447
     3  O   -0.547841
     4  C   -0.368246
     5  O   -0.588890
     6  O   -0.608360
     7  O   -0.404196
     8  C   -0.155790
     9  C    0.007086
    10  C   -0.123737
    11  C    0.757854
    12  C    0.007900
    13  C   -0.110486
    14  C    0.200111
    15  C    0.597269
    16  C    0.606970
    17  C   -0.111474
    18  H    0.298987
    19  H    0.437745
    20  H    0.358755
    21  H    0.175255
    22  H    0.118256
    23  H    0.136691
    24  H    0.147328
    25  H    0.178441
    26  H    0.186700
    27  H    0.188030
    28  N    0.423311
    29  O   -0.398649
    30  O   -0.402653
 Sum of Mulliken charges =  -0.00000

 Dipole moment (field-independent basis, Debye):
    X=              2.3040    Y=              1.8851    Z=              0.3211  Tot=              2.9942
 Quadrupole moment (field-independent basis, Debye-Ang):
   XX=           -139.3352   YY=           -109.7224   ZZ=           -115.0599
   XY=              2.5816   XZ=              4.0185   YZ=              1.5867

  Exact polarizability:       0.000       0.000       0.000       0.000       0.000       0.000
 Approx polarizability:     238.772      13.224     224.915      14.530      -4.580     121.867

 Normal termination of Gaussian 16 at Sun Oct 23 01:45:27 2022.
