 Gaussian 16, Revision C.01,
 Gaussian 16:  ES64L-G16RevC.01  3-Jul-2019

 ----------------------------------------------------------------------
 #p irc=(ReadCartesianFC,stepsize=15,lqa,maxpoints=15) b3lyp/6-31g(d) e
 m=gd3bj geom=allcheck guess=read
 ----------------------------------------------------------------------

 Structure from the checkpoint file:  "rough_irc_DA.chk"
 -------------------
 Title Card Required
 -------------------
 Charge =  0 Multiplicity = 1

 SCF Done:  E(RB3LYP) =  -234.570123920     A.U. after   11 cycles
 SCF Done:  E(RB3LYP) =  -234.572040753     A.U. after   12 cycles
 SCF Done:  E(RB3LYP) =  -234.574526917     A.U. after   12 cycles
 SCF Done:  E(RB3LYP) =  -234.577168793     A.U. after   11 cycles
 SCF Done:  E(RB3LYP) =  -234.579735421     A.U. after   11 cycles
 SCF Done:  E(RB3LYP) =  -234.582084500     A.U. after   11 cycles
 SCF Done:  E(RB3LYP) =  -234.584055206     A.U. after   11 cycles
 SCF Done:  E(RB3LYP) =  -234.585699458     A.U. after   11 cycles
 SCF Done:  E(RB3LYP) =  -234.586641180     A.U. after   11 cycles
 SCF Done:  E(RB3LYP) =  -234.588293639     A.U. after   11 cycles
 SCF Done:  E(RB3LYP) =  -234.609288698     A.U. after   11 cycles
 SCF Done:  E(RB3LYP) =  -234.621695706     A.U. after   11 cycles
 SCF Done:  E(RB3LYP) =  -234.633904543     A.U. after   11 cycles
 SCF Done:  E(RB3LYP) =  -234.644955600     A.U. after   10 cycles
 SCF Done:  E(RB3LYP) =  -234.653849404     A.U. after   10 cycles
 SCF Done:  E(RB3LYP) =  -234.659574084     A.U. after   11 cycles
 SCF Done:  E(RB3LYP) =  -234.661603158     A.U. after   11 cycles
 SCF Done:  E(RB3LYP) =  -234.660735518     A.U. after   11 cycles
 SCF Done:  E(RB3LYP) =  -234.661377324     A.U. after   11 cycles
 SCF Done:  E(RB3LYP) =  -234.661930069     A.U. after   11 cycles

                          Input orientation:
 ---------------------------------------------------------------------
 Center     Atomic      Atomic             Coordinates (Angstroms)
 Number     Number       Type             X           Y           Z
 ---------------------------------------------------------------------
      1          6           0       -1.218140    0.817645   -0.073536
      2          1           0       -1.427446    1.175905   -1.095000
      3          1           0       -2.017721    1.221247    0.560878
      4          6           0       -1.268987   -0.736964   -0.069867
      5          1           0       -2.092644   -1.084781    0.566305
      6          1           0       -1.500526   -1.085965   -1.089432
      7          6           0        0.141410    1.381138    0.357401
      8          1           0        0.178347    2.450482    0.119608
      9          1           0        0.233948    1.302254    1.453844
     10          6           0        1.267031    0.627335   -0.314440
     11          1           0        2.099946    1.171720   -0.778045
     12          6           0        1.223557   -0.709993   -0.311014
     13          1           0        2.019139   -1.309649   -0.771740
     14          6           0        0.051640   -1.385689    0.364541
     15          1           0        0.018460   -2.456263    0.131961
     16          1           0        0.148689   -1.307216    1.460228
 ---------------------------------------------------------------------

 Alpha  occ. eigenvalues --  -10.17940 -10.17937 -10.17660 -10.17641 -10.17491
 Alpha  occ. eigenvalues --  -10.17406  -0.82463  -0.73129  -0.72956  -0.61369
 Alpha  occ. eigenvalues --   -0.58423  -0.49527  -0.48731  -0.46674  -0.39629
 Alpha  occ. eigenvalues --   -0.39517  -0.38984  -0.37228  -0.37035  -0.31807
 Alpha  occ. eigenvalues --   -0.30977  -0.29698  -0.23504
 Alpha virt. eigenvalues --    0.02754   0.08839   0.11356   0.12752   0.14596
 Alpha virt. eigenvalues --    0.15087   0.16940   0.18951   0.19287   0.20813
 Alpha virt. eigenvalues --    0.21379   0.23147   0.24674   0.25140   0.31705

 Mulliken charges:
               1
     1  C   -0.257472
     2  H    0.136929
     3  H    0.129846
     4  C   -0.257527
     5  H    0.129899
     6  H    0.136996
     7  C   -0.303090
     8  H    0.134786
     9  H    0.144958
    10  C   -0.107855
    11  H    0.121857
    12  C   -0.107802
    13  H    0.121858
    14  C   -0.303195
    15  H    0.134769
    16  H    0.145044
 Sum of Mulliken charges =  -0.00000

 Dipole moment (field-independent basis, Debye):
    X=             -0.2033    Y=              0.0067    Z=              0.0991  Tot=              0.2263
 Quadrupole moment (field-independent basis, Debye-Ang):
   XX=            -38.2422   YY=            -36.9029   ZZ=            -38.3251
   XY=              0.0427   XZ=             -0.9178   YZ=              0.0265

  Exact polarizability:       0.000       0.000       0.000       0.000       0.000       0.000
 Approx polarizability:      76.249       0.796     101.269      -6.947       0.148      70.227

 Normal termination of Gaussian 16 at Thu Nov 10 13:01:30 2022.
