 Gaussian 16, Revision C.01,
 Gaussian 16:  ES64L-G16RevC.01  3-Jul-2019

 ----------------------------------------------------------------------
 #p irc=(restart,maxpoints=80,maxstep=15,lqa) 6-31g(d,p) m062x geom=all
 check guess=read
 ----------------------------------------------------------------------

 SCF Done:  E(RM062X) =  -2868.89494069     A.U. after   15 cycles
 SCF Done:  E(RM062X) =  -2868.89499331     A.U. after    9 cycles
 SCF Done:  E(RM062X) =  -2868.89504164     A.U. after   10 cycles
 SCF Done:  E(RM062X) =  -2868.89508978     A.U. after    9 cycles
 SCF Done:  E(RM062X) =  -2868.89513512     A.U. after    9 cycles
 SCF Done:  E(RM062X) =  -2868.89517951     A.U. after    9 cycles
 SCF Done:  E(RM062X) =  -2868.89522109     A.U. after    9 cycles
 SCF Done:  E(RM062X) =  -2868.89526043     A.U. after   10 cycles
 SCF Done:  E(RM062X) =  -2868.89529698     A.U. after    9 cycles
 SCF Done:  E(RM062X) =  -2868.89533081     A.U. after   10 cycles
 SCF Done:  E(RM062X) =  -2868.88647528     A.U. after   10 cycles
 SCF Done:  E(RM062X) =  -2868.88647676     A.U. after    9 cycles
 SCF Done:  E(RM062X) =  -2868.88647821     A.U. after    9 cycles
 SCF Done:  E(RM062X) =  -2868.88648054     A.U. after    9 cycles
 SCF Done:  E(RM062X) =  -2868.88648250     A.U. after   10 cycles
 SCF Done:  E(RM062X) =  -2868.88648420     A.U. after    9 cycles
 SCF Done:  E(RM062X) =  -2868.88648584     A.U. after    9 cycles
 SCF Done:  E(RM062X) =  -2868.88648726     A.U. after    9 cycles
 SCF Done:  E(RM062X) =  -2868.88648873     A.U. after    9 cycles
 SCF Done:  E(RM062X) =  -2868.88649010     A.U. after    9 cycles

                          Input orientation:
 ---------------------------------------------------------------------
 Center     Atomic      Atomic             Coordinates (Angstroms)
 Number     Number       Type             X           Y           Z
 ---------------------------------------------------------------------
      1          8           0        0.865116    1.745898   -3.431572
      2          7           0        1.688467    2.125915   -0.279919
      3          8           0        2.813736    2.722500   -3.014585
      4          8           0        3.886556    2.484112   -0.795706
      5          6           0        1.410991    4.441034   -1.147979
      6          7           0        4.870810   -1.468180    4.076395
      7          6           0        4.360731   -0.567234    3.023888
      8          6           0        1.650705    2.445113   -2.695828
      9          6           0        3.416709    1.086678    1.053731
     10          6           0        1.121022    2.956227   -1.348769
     11          6           0        2.959542    1.940692   -0.068297
     12          6           0        2.536817    0.203710    1.690657
     13          6           0        5.251373    0.300810    2.408648
     14          6           0        4.767822    1.133044    1.407970
     15          6           0        3.015004   -0.633232    2.689736
     16          8           0        6.047374   -1.374405    4.368943
     17          8           0        4.080740   -2.243635    4.578391
     18          1           0        0.134731    1.264143   -2.841149
     19          1           0        0.896135    1.641114    0.271321
     20          1           0        3.534833    2.749133   -1.743615
     21          1           0        2.481870    4.650314   -1.153062
     22          1           0        0.944338    5.015689   -1.951165
     23          1           0        0.982829    4.762890   -0.196719
     24          1           0        1.492157    0.131147    1.397609
     25          1           0        6.290600    0.307598    2.711288
     26          1           0        5.432018    1.814585    0.889410
     27          1           0        2.369420   -1.340672    3.194580
     28          8           0       -0.630561    0.485753   -1.956027
     29          8           0       -2.597310    0.077464   -0.513485
     30          6           0       -2.610447    6.324056   -0.188630
     31          8           0       -0.499863   -1.283314   -0.053953
     32          6           0       -5.031891    1.954236   -0.769764
     33          6           0        5.161436    0.077159   -2.283441
     34          8           0       -0.464680    1.099580    0.566928
     35          6           0        0.722167   -1.189026   -4.271697
     36          6           0        2.084046   -2.977004    0.286209
     37          6           0       -1.695018    2.554713    3.017223
     38          6           0       -2.210784    4.379154    1.373978
     39          6           0       -3.377207   -1.524359    1.080880
     40          6           0       -4.292681   -0.778817    3.195967
     41          6           0       -3.774217    4.096943   -0.412781
     42          6           0       -2.861103    4.906641    0.260235
     43          6           0       -2.050505   -2.972401   -0.737954
     44          6           0       -3.359596    2.273542    1.114881
     45          6           0       -3.199887   -0.201211    0.705331
     46          6           0       -3.130535   -2.816341    0.319478
     47          6           0       -4.035894    2.789354   -0.004854
     48          6           0       -4.376900   -3.264731   -0.495441
     49          6           0       -2.446542    3.077814    1.818555
     50          6           0       -3.887105   -1.804478    2.352633
     51          6           0       -4.156004    0.542193    2.772783
     52          6           0        0.100421   -2.750601   -1.857874
     53          6           0       -0.819773   -2.350049   -0.880450
     54          6           0       -3.851446   -4.383937   -1.415527
     55          6           0       -3.585990    0.859655    1.536123
     56          6           0       -1.533864   -4.378657   -2.640499
     57          6           0        1.412649   -2.049661   -1.979559
     58          6           0       -2.421712   -3.955790   -1.660010
     59          6           0        3.553139   -1.432381   -1.044865
     60          6           0       -0.272126   -3.790022   -2.715357
     61          6           0        2.351615   -2.133140   -0.935150
     62          6           0        2.899081   -0.577156   -3.182240
     63          6           0        1.694684   -1.280425   -3.121896
     64          6           0        3.842662   -0.641706   -2.157771
     65          6           0       -2.905632   -3.794734    1.508915
     66          6           0       -3.862023   -3.294333    2.607068
     67         15           0       -0.983157    0.198348   -0.524387
     68          1           0        0.045373    2.782998   -1.292300
     69          1           0       -1.651123    6.694235    0.182298
     70          1           0       -2.609195    6.400447   -1.279397
     71          1           0       -3.389507    6.996994    0.184540
     72          1           0       -5.640934    2.583889   -1.422036
     73          1           0       -5.697859    1.412898   -0.092043
     74          1           0       -4.519526    1.212436   -1.390160
     75          1           0        5.567330    0.337755   -1.301831
     76          1           0        5.898198   -0.554197   -2.790992
     77          1           0        5.051111    0.995384   -2.866401
     78          1           0        0.988668   -0.357143   -4.925797
     79          1           0        0.728659   -2.106519   -4.868882
     80          1           0       -0.297155   -1.035770   -3.908764
     81          1           0        1.302075   -2.529664    0.909990
     82          1           0        2.988518   -3.079347    0.891313
     83          1           0        1.740766   -3.977288    0.006716
     84          1           0       -2.336402    2.494145    3.902161
     85          1           0       -1.300435    1.557007    2.814823
     86          1           0       -0.860145    3.217159    3.259175
     87          1           0       -1.495959    4.997023    1.914571
     88          1           0       -4.696806   -0.998970    4.179557
     89          1           0       -4.298946    4.492102   -1.280301
     90          1           0       -4.718657   -2.418358   -1.100497
     91          1           0       -5.202536   -3.578775    0.149471
     92          1           0       -4.472034    1.355670    3.419238
     93          1           0       -4.422784   -4.472859   -2.343424
     94          1           0       -3.890483   -5.360493   -0.917574
     95          1           0       -1.819964   -5.149223   -3.350116
     96          1           0        4.281702   -1.505609   -0.237680
     97          1           0        0.436083   -4.116297   -3.471191
     98          1           0        3.096717    0.051162   -4.047929
     99          1           0       -3.070177   -4.837652    1.223997
    100          1           0       -1.869260   -3.694142    1.848782
    101          1           0       -3.517506   -3.540090    3.615132
    102          1           0       -4.862390   -3.729476    2.492209
 ---------------------------------------------------------------------

 Alpha  occ. eigenvalues --  -78.20081 -19.71181 -19.68891 -19.68872 -19.67959
 Alpha  occ. eigenvalues --  -19.67517 -19.67499 -19.66282 -19.61595 -19.61287
 Alpha  occ. eigenvalues --  -15.02443 -14.83688 -10.72656 -10.71287 -10.63694
 Alpha  occ. eigenvalues --  -10.63059 -10.61385 -10.61157 -10.61085 -10.60081
 Alpha  occ. eigenvalues --  -10.59995 -10.59854 -10.59776 -10.57247 -10.57155
 Alpha  occ. eigenvalues --  -10.55677 -10.55652 -10.55510 -10.55474 -10.55386
 Alpha  occ. eigenvalues --  -10.55345 -10.55182 -10.55162 -10.55159 -10.55134
 Alpha  occ. eigenvalues --  -10.55128 -10.54933 -10.54932 -10.54899 -10.54897
 Alpha  occ. eigenvalues --  -10.54883 -10.54878 -10.54863 -10.54857 -10.54825
 Alpha  occ. eigenvalues --  -10.54610 -10.54399 -10.54113 -10.53735 -10.53707
 Alpha  occ. eigenvalues --  -10.53408 -10.53399 -10.53300 -10.53196 -10.52733
 Alpha  occ. eigenvalues --  -10.52698 -10.52166  -6.98051  -5.09884  -5.09793
 Alpha  occ. eigenvalues --   -5.09721  -1.37939  -1.26102  -1.23996  -1.22291
 Alpha  occ. eigenvalues --   -1.19350  -1.17102  -1.15826  -1.11679  -1.09633
 Alpha  occ. eigenvalues --   -1.07404  -1.02038  -0.99572  -0.97259  -0.96338
 Alpha  occ. eigenvalues --   -0.95545  -0.94463  -0.92773  -0.90553  -0.90251
 Alpha  occ. eigenvalues --   -0.89066  -0.87732  -0.87020  -0.86854  -0.86788
 Alpha  occ. eigenvalues --   -0.85323  -0.83625  -0.83569  -0.81857  -0.81587
 Alpha  occ. eigenvalues --   -0.78965  -0.78543  -0.78274  -0.78258  -0.76344
 Alpha  occ. eigenvalues --   -0.75948  -0.75777  -0.75707  -0.75614  -0.73907
 Alpha  occ. eigenvalues --   -0.72204  -0.71271  -0.70859  -0.70415  -0.70165
 Alpha  occ. eigenvalues --   -0.68922  -0.67145  -0.67034  -0.66798  -0.66463
 Alpha  occ. eigenvalues --   -0.64982  -0.64303  -0.64246  -0.63865  -0.63624
 Alpha  occ. eigenvalues --   -0.62917  -0.61724  -0.61142  -0.61003  -0.60284
 Alpha  occ. eigenvalues --   -0.58872  -0.58495  -0.57529  -0.57201  -0.56597
 Alpha  occ. eigenvalues --   -0.56274  -0.56049  -0.55664  -0.55157  -0.55122
 Alpha  occ. eigenvalues --   -0.54862  -0.54713  -0.54583  -0.53841  -0.53411
 Alpha  occ. eigenvalues --   -0.53155  -0.52870  -0.52298  -0.51427  -0.51018
 Alpha  occ. eigenvalues --   -0.50460  -0.49956  -0.49511  -0.49480  -0.48866
 Alpha  occ. eigenvalues --   -0.48755  -0.48464  -0.48311  -0.48129  -0.47866
 Alpha  occ. eigenvalues --   -0.47591  -0.47393  -0.47325  -0.46872  -0.46501
 Alpha  occ. eigenvalues --   -0.46346  -0.46226  -0.46085  -0.45869  -0.45562
 Alpha  occ. eigenvalues --   -0.45470  -0.45291  -0.45221  -0.45018  -0.44855
 Alpha  occ. eigenvalues --   -0.44779  -0.44618  -0.44469  -0.43329  -0.43136
 Alpha  occ. eigenvalues --   -0.42960  -0.42536  -0.41694  -0.41648  -0.41459
 Alpha  occ. eigenvalues --   -0.41305  -0.41201  -0.40986  -0.40584  -0.39975
 Alpha  occ. eigenvalues --   -0.39670  -0.39581  -0.39461  -0.39371  -0.39000
 Alpha  occ. eigenvalues --   -0.38815  -0.38677  -0.38675  -0.38584  -0.38276
 Alpha  occ. eigenvalues --   -0.37976  -0.37709  -0.37446  -0.37207  -0.37101
 Alpha  occ. eigenvalues --   -0.36699  -0.36647  -0.35511  -0.34896  -0.34638
 Alpha  occ. eigenvalues --   -0.29898  -0.29668  -0.29321  -0.28035  -0.27781
 Alpha  occ. eigenvalues --   -0.27755  -0.26691  -0.26548
 Alpha virt. eigenvalues --   -0.07848  -0.01196  -0.01051   0.01726   0.01929
 Alpha virt. eigenvalues --    0.02273   0.02862   0.03244   0.04675   0.04858
 Alpha virt. eigenvalues --    0.05340   0.05496   0.06560   0.09700   0.11692

 Mulliken charges:
               1
     1  O   -0.528288
     2  N   -0.569139
     3  O   -0.550357
     4  O   -0.567354
     5  C   -0.346505
     6  N    0.424939
     7  C    0.203865
     8  C    0.676927
     9  C    0.027487
    10  C   -0.128332
    11  C    0.630895
    12  C   -0.112213
    13  C   -0.115724
    14  C   -0.136534
    15  C   -0.124613
    16  O   -0.398706
    17  O   -0.396429
    18  H    0.455625
    19  H    0.426969
    20  H    0.435476
    21  H    0.141617
    22  H    0.155767
    23  H    0.154901
    24  H    0.180760
    25  H    0.188711
    26  H    0.174831
    27  H    0.192120
    28  O   -0.686720
    29  O   -0.627813
    30  C   -0.408145
    31  O   -0.648267
    32  C   -0.410961
    33  C   -0.388533
    34  O   -0.710564
    35  C   -0.403583
    36  C   -0.401544
    37  C   -0.392455
    38  C   -0.209555
    39  C    0.135483
    40  C   -0.150218
    41  C   -0.197285
    42  C    0.095306
    43  C    0.132490
    44  C   -0.061568
    45  C    0.225200
    46  C   -0.145815
    47  C    0.102862
    48  C   -0.211415
    49  C    0.128002
    50  C    0.027304
    51  C   -0.149484
    52  C   -0.003630
    53  C    0.227058
    54  C   -0.266941
    55  C   -0.004614
    56  C   -0.149470
    57  C   -0.054192
    58  C    0.029944
    59  C   -0.194597
    60  C   -0.149414
    61  C    0.099742
    62  C   -0.195690
    63  C    0.100209
    64  C    0.067880
    65  C   -0.210285
    66  C   -0.266226
    67  P    1.316211
    68  H    0.193064
    69  H    0.119683
    70  H    0.129782
    71  H    0.147257
    72  H    0.119421
    73  H    0.133322
    74  H    0.165356
    75  H    0.104676
    76  H    0.145749
    77  H    0.132142
    78  H    0.136167
    79  H    0.124822
    80  H    0.156077
    81  H    0.139564
    82  H    0.116241
    83  H    0.141833
    84  H    0.125236
    85  H    0.158528
    86  H    0.109959
    87  H    0.090099
    88  H    0.118653
    89  H    0.098509
    90  H    0.138285
    91  H    0.114463
    92  H    0.124700
    93  H    0.137450
    94  H    0.133066
    95  H    0.119085
    96  H    0.079278
    97  H    0.125803
    98  H    0.117469
    99  H    0.115366
   100  H    0.133516
   101  H    0.136227
   102  H    0.133754
 Sum of Mulliken charges =  -0.00000

 Dipole moment (field-independent basis, Debye):
    X=             -1.0592    Y=              2.0269    Z=              0.1422  Tot=              2.2914
 Quadrupole moment (field-independent basis, Debye-Ang):
   XX=           -334.0505   YY=           -314.9872   ZZ=           -353.5092
   XY=             25.0527   XZ=             -9.2591   YZ=              9.3635

  Exact polarizability:       0.000       0.000       0.000       0.000       0.000       0.000
 Approx polarizability:     666.128      84.951     638.000      16.450     -58.929     644.203

 Normal termination of Gaussian 16 at Sun Nov  6 19:15:56 2022.
