 Gaussian 16, Revision C.01,
 Gaussian 16:  ES64L-G16RevC.01  3-Jul-2019

 ------------------------------------------------------------
 #p irc=(calcfc,maxpoints=40,maxstep=15,lqa) 6-31g(d,p) m062x
 ------------------------------------------------------------

 -----
 TITLE
 -----
 Symbolic Z-matrix:
 Charge =  0 Multiplicity = 1

 SCF Done:  E(RM062X) =  -2868.88533359     A.U. after   14 cycles
 SCF Done:  E(RM062X) =  -2868.88551806     A.U. after   12 cycles
 SCF Done:  E(RM062X) =  -2868.88613818     A.U. after   12 cycles
 SCF Done:  E(RM062X) =  -2868.88705650     A.U. after   12 cycles
 SCF Done:  E(RM062X) =  -2868.88802006     A.U. after   12 cycles
 SCF Done:  E(RM062X) =  -2868.88878815     A.U. after   12 cycles
 SCF Done:  E(RM062X) =  -2868.88938142     A.U. after   12 cycles
 SCF Done:  E(RM062X) =  -2868.88985247     A.U. after   11 cycles
 SCF Done:  E(RM062X) =  -2868.89024100     A.U. after   12 cycles
 SCF Done:  E(RM062X) =  -2868.89064371     A.U. after   10 cycles
 SCF Done:  E(RM062X) =  -2868.88643773     A.U. after   10 cycles
 SCF Done:  E(RM062X) =  -2868.88644248     A.U. after    9 cycles
 SCF Done:  E(RM062X) =  -2868.88644693     A.U. after   10 cycles
 SCF Done:  E(RM062X) =  -2868.88645105     A.U. after   10 cycles
 SCF Done:  E(RM062X) =  -2868.88645484     A.U. after    9 cycles
 SCF Done:  E(RM062X) =  -2868.88645831     A.U. after    9 cycles
 SCF Done:  E(RM062X) =  -2868.88646141     A.U. after    9 cycles
 SCF Done:  E(RM062X) =  -2868.88646421     A.U. after    9 cycles
 SCF Done:  E(RM062X) =  -2868.88646636     A.U. after   10 cycles
 SCF Done:  E(RM062X) =  -2868.88646852     A.U. after    9 cycles

                          Input orientation:
 ---------------------------------------------------------------------
 Center     Atomic      Atomic             Coordinates (Angstroms)
 Number     Number       Type             X           Y           Z
 ---------------------------------------------------------------------
      1          8           0        0.871262    1.741193   -3.430490
      2          7           0        1.705640    2.114202   -0.280500
      3          8           0        2.827043    2.705424   -3.018092
      4          8           0        3.903280    2.463213   -0.803071
      5          6           0        1.439685    4.431162   -1.147323
      6          7           0        4.892535   -1.484993    4.070077
      7          6           0        4.380759   -0.584109    3.018251
      8          6           0        1.663032    2.434680   -2.696616
      9          6           0        3.434469    1.069888    1.049367
     10          6           0        1.140109    2.948138   -1.347690
     11          6           0        2.976675    1.923979   -0.072262
     12          6           0        2.554021    0.190906    1.690964
     13          6           0        5.271806    0.280154    2.398367
     14          6           0        4.787064    1.112451    1.398409
     15          6           0        3.033448   -0.646242    2.689415
     16          8           0        6.070998   -1.395479    4.356294
     17          8           0        4.101886   -2.256066    4.577826
     18          1           0        0.138096    1.262376   -2.837209
     19          1           0        0.913089    1.634494    0.273019
     20          1           0        3.550172    2.728532   -1.750425
     21          1           0        2.511761    4.634011   -1.155261
     22          1           0        0.974534    5.008601   -1.949364
     23          1           0        1.016216    4.755757   -0.194912
     24          1           0        1.507952    0.121607    1.401750
     25          1           0        6.312199    0.284031    2.696991
     26          1           0        5.451361    1.791153    0.876308
     27          1           0        2.387589   -1.350886    3.197835
     28          8           0       -0.628629    0.490272   -1.952870
     29          8           0       -2.595147    0.089425   -0.508611
     30          6           0       -2.672724    6.348913   -0.175235
     31          8           0       -0.501676   -1.279556   -0.052130
     32          6           0       -5.046039    1.952498   -0.761436
     33          6           0        5.168909    0.051284   -2.290421
     34          8           0       -0.456782    1.103672    0.569811
     35          6           0        0.719260   -1.188964   -4.271840
     36          6           0        2.076851   -2.983286    0.284876
     37          6           0       -1.698651    2.578709    3.011481
     38          6           0       -2.240553    4.402006    1.374857
     39          6           0       -3.378554   -1.512733    1.084324
     40          6           0       -4.293625   -0.767361    3.199661
     41          6           0       -3.810606    4.108293   -0.404263
     42          6           0       -2.903660    4.926025    0.266653
     43          6           0       -2.058298   -2.962805   -0.737224
     44          6           0       -3.369080    2.285528    1.116442
     45          6           0       -3.198917   -0.189637    0.709600
     46          6           0       -3.136678   -2.804486    0.321280
     47          6           0       -4.055824    2.796489    0.001222
     48          6           0       -4.385436   -3.247322   -0.493071
     49          6           0       -2.460071    3.097366    1.817145
     50          6           0       -3.889262   -1.792974    2.355736
     51          6           0       -4.156655    0.553574    2.776470
     52          6           0        0.092613   -2.747641   -1.857810
     53          6           0       -0.825558   -2.344440   -0.879619
     54          6           0       -3.864775   -4.367127   -1.415113
     55          6           0       -3.586479    0.870943    1.539836
     56          6           0       -1.547944   -4.369000   -2.641443
     57          6           0        1.407772   -2.052544   -1.980198
     58          6           0       -2.433697   -3.943822   -1.660105
     59          6           0        3.553273   -1.447906   -1.048854
     60          6           0       -0.284111   -3.784966   -2.716058
     61          6           0        2.347621   -2.141227   -0.937032
     62          6           0        2.901101   -0.589172   -3.185439
     63          6           0        1.692657   -1.285277   -3.123161
     64          6           0        3.845927   -0.659384   -2.162474
     65          6           0       -2.914063   -3.785230    1.509153
     66          6           0       -3.867936   -3.283146    2.608695
     67         15           0       -0.980479    0.204339   -0.520428
     68          1           0        0.063698    2.781183   -1.288403
     69          1           0       -1.685860    6.705025    0.132618
     70          1           0       -2.748642    6.444374   -1.261731
     71          1           0       -3.416392    7.021567    0.265258
     72          1           0       -5.661239    2.576481   -1.413364
     73          1           0       -5.706495    1.406180   -0.082278
     74          1           0       -4.528479    1.214404   -1.381991
     75          1           0        5.577840    0.309849   -1.309566
     76          1           0        5.901037   -0.584782   -2.798740
     77          1           0        5.063368    0.969889   -2.873631
     78          1           0        0.988795   -0.358098   -4.925917
     79          1           0        0.720845   -2.106291   -4.869275
     80          1           0       -0.298955   -1.031185   -3.907748
     81          1           0        1.297969   -2.531634    0.909423
     82          1           0        2.981502   -3.090407    0.888875
     83          1           0        1.727831   -3.981759    0.006003
     84          1           0       -2.336799    2.506850    3.897895
     85          1           0       -1.292772    1.586630    2.803820
     86          1           0       -0.871225    3.250268    3.253850
     87          1           0       -1.529135    5.025956    1.912988
     88          1           0       -4.698192   -0.987556    4.183060
     89          1           0       -4.343861    4.500000   -1.268067
     90          1           0       -4.724736   -2.398883   -1.096624
     91          1           0       -5.211560   -3.559295    0.152216
     92          1           0       -4.473706    1.367179    3.422274
     93          1           0       -4.437128   -4.452744   -2.342691
     94          1           0       -3.906927   -5.344212   -0.918450
     95          1           0       -1.837124   -5.137852   -3.351669
     96          1           0        4.282749   -1.525534   -0.242908
     97          1           0        0.422728   -4.113165   -3.472341
     98          1           0        3.101192    0.037746   -4.051576
     99          1           0       -3.082240   -4.827223    1.222974
    100          1           0       -1.877077   -3.688485    1.848284
    101          1           0       -3.523060   -3.530797    3.616180
    102          1           0       -4.869637   -3.715378    2.494519
 ---------------------------------------------------------------------

 Alpha  occ. eigenvalues --  -78.20089 -19.71180 -19.68903 -19.68883 -19.67936
 Alpha  occ. eigenvalues --  -19.67517 -19.67502 -19.66268 -19.61604 -19.61287
 Alpha  occ. eigenvalues --  -15.02456 -14.83724 -10.72675 -10.71274 -10.63711
 Alpha  occ. eigenvalues --  -10.63062 -10.61403 -10.61152 -10.61087 -10.60093
 Alpha  occ. eigenvalues --  -10.60008 -10.59884 -10.59805 -10.57241 -10.57161
 Alpha  occ. eigenvalues --  -10.55666 -10.55652 -10.55503 -10.55472 -10.55380
 Alpha  occ. eigenvalues --  -10.55342 -10.55174 -10.55158 -10.55158 -10.55143
 Alpha  occ. eigenvalues --  -10.55127 -10.54941 -10.54929 -10.54892 -10.54881
 Alpha  occ. eigenvalues --  -10.54870 -10.54865 -10.54857 -10.54845 -10.54830
 Alpha  occ. eigenvalues --  -10.54617 -10.54387 -10.54084 -10.53742 -10.53717
 Alpha  occ. eigenvalues --  -10.53417 -10.53374 -10.53285 -10.53203 -10.52728
 Alpha  occ. eigenvalues --  -10.52676 -10.52165  -6.98056  -5.09890  -5.09799
 Alpha  occ. eigenvalues --   -5.09727  -1.37951  -1.26108  -1.23982  -1.22281
 Alpha  occ. eigenvalues --   -1.19362  -1.17095  -1.15805  -1.11669  -1.09649
 Alpha  occ. eigenvalues --   -1.07401  -1.02055  -0.99572  -0.97258  -0.96336
 Alpha  occ. eigenvalues --   -0.95540  -0.94476  -0.92770  -0.90560  -0.90248
 Alpha  occ. eigenvalues --   -0.89084  -0.87727  -0.87019  -0.86844  -0.86784
 Alpha  occ. eigenvalues --   -0.85322  -0.83640  -0.83568  -0.81851  -0.81584
 Alpha  occ. eigenvalues --   -0.78963  -0.78549  -0.78281  -0.78239  -0.76350
 Alpha  occ. eigenvalues --   -0.75943  -0.75778  -0.75696  -0.75614  -0.73920
 Alpha  occ. eigenvalues --   -0.72205  -0.71268  -0.70866  -0.70422  -0.70156
 Alpha  occ. eigenvalues --   -0.68922  -0.67137  -0.67034  -0.66805  -0.66464
 Alpha  occ. eigenvalues --   -0.64995  -0.64309  -0.64230  -0.63860  -0.63635
 Alpha  occ. eigenvalues --   -0.62912  -0.61725  -0.61154  -0.61002  -0.60286
 Alpha  occ. eigenvalues --   -0.58875  -0.58502  -0.57523  -0.57196  -0.56600
 Alpha  occ. eigenvalues --   -0.56279  -0.56045  -0.55668  -0.55168  -0.55126
 Alpha  occ. eigenvalues --   -0.54858  -0.54719  -0.54580  -0.53842  -0.53416
 Alpha  occ. eigenvalues --   -0.53146  -0.52869  -0.52297  -0.51428  -0.51015
 Alpha  occ. eigenvalues --   -0.50461  -0.49961  -0.49510  -0.49478  -0.48851
 Alpha  occ. eigenvalues --   -0.48754  -0.48444  -0.48314  -0.48127  -0.47873
 Alpha  occ. eigenvalues --   -0.47584  -0.47396  -0.47320  -0.46867  -0.46506
 Alpha  occ. eigenvalues --   -0.46349  -0.46231  -0.46073  -0.45867  -0.45564
 Alpha  occ. eigenvalues --   -0.45462  -0.45288  -0.45215  -0.45008  -0.44861
 Alpha  occ. eigenvalues --   -0.44780  -0.44617  -0.44470  -0.43331  -0.43135
 Alpha  occ. eigenvalues --   -0.42953  -0.42537  -0.41688  -0.41646  -0.41450
 Alpha  occ. eigenvalues --   -0.41307  -0.41200  -0.40982  -0.40576  -0.39969
 Alpha  occ. eigenvalues --   -0.39678  -0.39582  -0.39453  -0.39363  -0.38987
 Alpha  occ. eigenvalues --   -0.38826  -0.38688  -0.38671  -0.38584  -0.38268
 Alpha  occ. eigenvalues --   -0.37979  -0.37707  -0.37441  -0.37209  -0.37107
 Alpha  occ. eigenvalues --   -0.36700  -0.36642  -0.35511  -0.34910  -0.34655
 Alpha  occ. eigenvalues --   -0.29896  -0.29661  -0.29314  -0.28028  -0.27788
 Alpha  occ. eigenvalues --   -0.27742  -0.26695  -0.26547
 Alpha virt. eigenvalues --   -0.07864  -0.01214  -0.01065   0.01731   0.01949
 Alpha virt. eigenvalues --    0.02277   0.02866   0.03243   0.04670   0.04887
 Alpha virt. eigenvalues --    0.05333   0.05496   0.06544   0.09698   0.11718

 Mulliken charges:
               1
     1  O   -0.528894
     2  N   -0.568713
     3  O   -0.550698
     4  O   -0.567387
     5  C   -0.346850
     6  N    0.424984
     7  C    0.203888
     8  C    0.677193
     9  C    0.027534
    10  C   -0.128995
    11  C    0.631171
    12  C   -0.112385
    13  C   -0.115693
    14  C   -0.136434
    15  C   -0.124479
    16  O   -0.398665
    17  O   -0.396371
    18  H    0.456342
    19  H    0.426084
    20  H    0.435658
    21  H    0.141717
    22  H    0.156067
    23  H    0.155043
    24  H    0.180565
    25  H    0.188824
    26  H    0.174966
    27  H    0.192191
    28  O   -0.687173
    29  O   -0.627687
    30  C   -0.408036
    31  O   -0.648269
    32  C   -0.410968
    33  C   -0.388461
    34  O   -0.710254
    35  C   -0.403472
    36  C   -0.401672
    37  C   -0.392815
    38  C   -0.208914
    39  C    0.135549
    40  C   -0.150202
    41  C   -0.197572
    42  C    0.095666
    43  C    0.132394
    44  C   -0.061269
    45  C    0.225145
    46  C   -0.146014
    47  C    0.103383
    48  C   -0.211308
    49  C    0.126376
    50  C    0.027313
    51  C   -0.148946
    52  C   -0.003793
    53  C    0.227297
    54  C   -0.266943
    55  C   -0.005241
    56  C   -0.149474
    57  C   -0.054054
    58  C    0.030009
    59  C   -0.194756
    60  C   -0.149279
    61  C    0.099715
    62  C   -0.195699
    63  C    0.099860
    64  C    0.067843
    65  C   -0.210227
    66  C   -0.266227
    67  P    1.316036
    68  H    0.193583
    69  H    0.119979
    70  H    0.129494
    71  H    0.147256
    72  H    0.119401
    73  H    0.133331
    74  H    0.165162
    75  H    0.104632
    76  H    0.145782
    77  H    0.132179
    78  H    0.136327
    79  H    0.124803
    80  H    0.155991
    81  H    0.139648
    82  H    0.116243
    83  H    0.141899
    84  H    0.125155
    85  H    0.159169
    86  H    0.109824
    87  H    0.090130
    88  H    0.118627
    89  H    0.098430
    90  H    0.138220
    91  H    0.114469
    92  H    0.124726
    93  H    0.137462
    94  H    0.133056
    95  H    0.119101
    96  H    0.079285
    97  H    0.125790
    98  H    0.117558
    99  H    0.115338
   100  H    0.133475
   101  H    0.136216
   102  H    0.133735
 Sum of Mulliken charges =  -0.00000

 Dipole moment (field-independent basis, Debye):
    X=             -1.0247    Y=              2.0168    Z=              0.1522  Tot=              2.2673
 Quadrupole moment (field-independent basis, Debye-Ang):
   XX=           -333.8946   YY=           -315.1093   ZZ=           -353.5174
   XY=             25.1700   XZ=             -9.2795   YZ=              9.4322

  Exact polarizability:       0.000       0.000       0.000       0.000       0.000       0.000
 Approx polarizability:     666.788      83.814     637.545      16.323     -58.643     643.731

 Normal termination of Gaussian 16 at Sun Nov  6 14:13:20 2022.
