 Gaussian 16, Revision C.01,
 Gaussian 16:  ES64L-G16RevC.01  3-Jul-2019

 -------------------------------------------------
 #p irc=(calcfc,maxpoints=30,LQA) 6-31g(d,p) m062x
 -------------------------------------------------

 -----
 TITLE
 -----
 Symbolic Z-matrix:
 Charge =  0 Multiplicity = 1

 SCF Done:  E(RM062X) =  -2868.85037566     A.U. after   14 cycles
 SCF Done:  E(RM062X) =  -2868.85059983     A.U. after   12 cycles
 SCF Done:  E(RM062X) =  -2868.85109833     A.U. after   12 cycles
 SCF Done:  E(RM062X) =  -2868.85160763     A.U. after   12 cycles
 SCF Done:  E(RM062X) =  -2868.85210621     A.U. after   11 cycles
 SCF Done:  E(RM062X) =  -2868.85256874     A.U. after   11 cycles
 SCF Done:  E(RM062X) =  -2868.85301575     A.U. after   12 cycles
 SCF Done:  E(RM062X) =  -2868.85348023     A.U. after   12 cycles
 SCF Done:  E(RM062X) =  -2868.85404170     A.U. after   12 cycles
 SCF Done:  E(RM062X) =  -2868.85480980     A.U. after   13 cycles
 SCF Done:  E(RM062X) =  -2868.85774061     A.U. after    9 cycles
 SCF Done:  E(RM062X) =  -2868.85791758     A.U. after   10 cycles
 SCF Done:  E(RM062X) =  -2868.85808983     A.U. after   10 cycles
 SCF Done:  E(RM062X) =  -2868.85825773     A.U. after   10 cycles
 SCF Done:  E(RM062X) =  -2868.85842134     A.U. after   10 cycles
 SCF Done:  E(RM062X) =  -2868.85858091     A.U. after   10 cycles
 SCF Done:  E(RM062X) =  -2868.85873646     A.U. after   10 cycles
 SCF Done:  E(RM062X) =  -2868.85888815     A.U. after   10 cycles
 SCF Done:  E(RM062X) =  -2868.85903593     A.U. after   10 cycles
 SCF Done:  E(RM062X) =  -2868.85917992     A.U. after   10 cycles

                          Input orientation:
 ---------------------------------------------------------------------
 Center     Atomic      Atomic             Coordinates (Angstroms)
 Number     Number       Type             X           Y           Z
 ---------------------------------------------------------------------
      1          8           0        0.749214    3.388986   -3.935715
      2          7           0        1.652326    2.108884   -0.608284
      3          8           0        2.704369    2.525229   -3.357892
      4          8           0        3.866297    2.266586   -1.206086
      5          6           0       -0.049412    3.767091   -1.262822
      6          7           0        4.903742   -0.832698    4.196478
      7          6           0        4.370071   -0.105140    3.028041
      8          6           0        1.569251    2.868668   -3.038265
      9          6           0        3.381257    1.230885    0.846688
     10          6           0        0.878761    2.646889   -1.737699
     11          6           0        2.920448    1.901341   -0.396841
     12          6           0        2.522937    0.434179    1.612071
     13          6           0        5.240698    0.680134    2.285350
     14          6           0        4.734725    1.349728    1.180563
     15          6           0        3.024759   -0.241725    2.717607
     16          8           0        6.083414   -0.686241    4.455150
     17          8           0        4.129315   -1.530207    4.821841
     18          1           0        1.211424    3.399038   -4.789095
     19          1           0        0.941485    1.726127    0.081899
     20          1           0        3.496843    2.398478   -2.156421
     21          1           0        0.505966    4.663953   -0.976032
     22          1           0       -0.754373    4.012965   -2.057694
     23          1           0       -0.620100    3.401731   -0.403987
     24          1           0        1.477091    0.301510    1.344783
     25          1           0        6.281813    0.749500    2.573592
     26          1           0        5.386991    1.954971    0.562576
     27          1           0        2.394063   -0.879292    3.324145
     28          8           0       -0.534078    0.291664   -1.861097
     29          8           0       -2.570427   -0.003852   -0.500217
     30          6           0       -2.876352    6.221421    0.068569
     31          8           0       -0.488255   -1.353659    0.124785
     32          6           0       -5.057701    1.789822   -0.885970
     33          6           0        5.717356   -0.457018   -1.523706
     34          8           0       -0.472496    1.090198    0.616066
     35          6           0        1.324418   -0.920971   -3.917351
     36          6           0        2.028405   -3.115523    0.625822
     37          6           0       -2.020454    2.334483    3.147661
     38          6           0       -2.538974    4.232604    1.588161
     39          6           0       -3.430420   -1.703126    0.926904
     40          6           0       -4.554316   -1.097370    2.982850
     41          6           0       -3.948103    3.969736   -0.324950
     42          6           0       -3.134264    4.787155    0.456028
     43          6           0       -1.904972   -3.010467   -0.841919
     44          6           0       -3.549335    2.086963    1.135561
     45          6           0       -3.255516   -0.356745    0.641770
     46          6           0       -3.085634   -2.939957    0.111999
     47          6           0       -4.166629    2.628908   -0.005340
     48          6           0       -4.239055   -3.345773   -0.849383
     49          6           0       -2.727874    2.896018    1.940424
     50          6           0       -4.045584   -2.066667    2.126761
     51          6           0       -4.420432    0.248548    2.644208
     52          6           0        0.338387   -2.668650   -1.718460
     53          6           0       -0.676958   -2.369585   -0.798702
     54          6           0       -3.606020   -4.379947   -1.801119
     55          6           0       -3.751642    0.647712    1.482168
     56          6           0       -1.189058   -4.227637   -2.806686
     57          6           0        1.682905   -2.020018   -1.641848
     58          6           0       -2.170174   -3.911951   -1.876664
     59          6           0        3.804557   -1.758068   -0.508175
     60          6           0        0.062779   -3.621534   -2.703859
     61          6           0        2.508363   -2.277054   -0.531903
     62          6           0        3.453091   -0.692822   -2.616969
     63          6           0        2.160331   -1.214121   -2.695365
     64          6           0        4.300971   -0.972155   -1.543653
     65          6           0       -2.953899   -3.988390    1.253701
     66          6           0       -4.011146   -3.569303    2.292616
     67         15           0       -0.949206    0.118165   -0.437762
     68          1           0        0.220218    1.781741   -2.009829
     69          1           0       -2.020092    6.295850   -0.611773
     70          1           0       -3.738853    6.655640   -0.443256
     71          1           0       -2.653487    6.835383    0.944675
     72          1           0       -5.644228    2.423072   -1.555398
     73          1           0       -5.746620    1.183939   -0.290798
     74          1           0       -4.460045    1.105092   -1.495289
     75          1           0        5.747114    0.621659   -1.705554
     76          1           0        6.194462   -0.655559   -0.560453
     77          1           0        6.318049   -0.939771   -2.301145
     78          1           0        1.692916   -0.016465   -4.411487
     79          1           0        1.391439   -1.736995   -4.645088
     80          1           0        0.277734   -0.777771   -3.648313
     81          1           0        1.259195   -2.584064    1.196350
     82          1           0        2.855447   -3.352101    1.299675
     83          1           0        1.583372   -4.053141    0.280329
     84          1           0       -2.718297    2.082216    3.951391
     85          1           0       -1.478238    1.426537    2.871134
     86          1           0       -1.305344    3.060801    3.541085
     87          1           0       -1.900271    4.854744    2.212229
     88          1           0       -5.041570   -1.380797    3.911083
     89          1           0       -4.433067    4.385540   -1.205991
     90          1           0       -4.542560   -2.459808   -1.417122
     91          1           0       -5.113523   -3.722725   -0.310987
     92          1           0       -4.823223    1.015919    3.299092
     93          1           0       -4.089271   -4.405458   -2.781589
     94          1           0       -3.666503   -5.393122   -1.384634
     95          1           0       -1.392322   -4.929234   -3.610273
     96          1           0        4.441932   -1.972607    0.348700
     97          1           0        0.845612   -3.869528   -3.414979
     98          1           0        3.815353   -0.068954   -3.433102
     99          1           0       -3.075871   -5.013174    0.891066
    100          1           0       -1.953206   -3.898192    1.689909
    101          1           0       -3.749769   -3.872428    3.310140
    102          1           0       -4.989255   -4.011037    2.064982
 ---------------------------------------------------------------------

 Alpha  occ. eigenvalues --  -78.17308 -19.73697 -19.70913 -19.69694 -19.68445
 Alpha  occ. eigenvalues --  -19.68417 -19.65971 -19.65859 -19.59641 -19.58075
 Alpha  occ. eigenvalues --  -15.01983 -14.84375 -10.74612 -10.72636 -10.63126
 Alpha  occ. eigenvalues --  -10.62433 -10.60872 -10.60063 -10.60019 -10.59522
 Alpha  occ. eigenvalues --  -10.59419 -10.59161 -10.59015 -10.56370 -10.55899
 Alpha  occ. eigenvalues --  -10.54910 -10.54902 -10.54901 -10.54886 -10.54783
 Alpha  occ. eigenvalues --  -10.54669 -10.54649 -10.54505 -10.54456 -10.54445
 Alpha  occ. eigenvalues --  -10.54420 -10.54411 -10.54389 -10.54359 -10.54358
 Alpha  occ. eigenvalues --  -10.54300 -10.54269 -10.54179 -10.54143 -10.54086
 Alpha  occ. eigenvalues --  -10.54072 -10.53963 -10.53813 -10.53735 -10.53463
 Alpha  occ. eigenvalues --  -10.53438 -10.52843 -10.52813 -10.52805 -10.52185
 Alpha  occ. eigenvalues --  -10.52172 -10.51963  -6.95398  -5.07233  -5.07146
 Alpha  occ. eigenvalues --   -5.07012  -1.37476  -1.29637  -1.25385  -1.20507
 Alpha  occ. eigenvalues --   -1.19298  -1.18876  -1.15673  -1.10458  -1.08369
 Alpha  occ. eigenvalues --   -1.04777  -1.01426  -0.98666  -0.96573  -0.95887
 Alpha  occ. eigenvalues --   -0.94970  -0.94232  -0.92030  -0.91236  -0.89594
 Alpha  occ. eigenvalues --   -0.88454  -0.87308  -0.86768  -0.86428  -0.86224
 Alpha  occ. eigenvalues --   -0.84344  -0.83475  -0.82567  -0.81205  -0.80936
 Alpha  occ. eigenvalues --   -0.79831  -0.78174  -0.78020  -0.77692  -0.76910
 Alpha  occ. eigenvalues --   -0.75600  -0.75499  -0.75156  -0.75046  -0.74428
 Alpha  occ. eigenvalues --   -0.71502  -0.70749  -0.70520  -0.69876  -0.69380
 Alpha  occ. eigenvalues --   -0.69285  -0.66380  -0.66273  -0.66164  -0.65707
 Alpha  occ. eigenvalues --   -0.64653  -0.64113  -0.63632  -0.63281  -0.63160
 Alpha  occ. eigenvalues --   -0.62561  -0.62260  -0.61019  -0.60576  -0.60356
 Alpha  occ. eigenvalues --   -0.60019  -0.58168  -0.57215  -0.56498  -0.56376
 Alpha  occ. eigenvalues --   -0.55826  -0.55632  -0.55080  -0.54736  -0.54586
 Alpha  occ. eigenvalues --   -0.54389  -0.54165  -0.53951  -0.53415  -0.52647
 Alpha  occ. eigenvalues --   -0.51970  -0.51959  -0.51667  -0.51430  -0.51077
 Alpha  occ. eigenvalues --   -0.50100  -0.49792  -0.49600  -0.48891  -0.48654
 Alpha  occ. eigenvalues --   -0.48433  -0.48188  -0.47948  -0.47739  -0.47348
 Alpha  occ. eigenvalues --   -0.47235  -0.47020  -0.46635  -0.46287  -0.46040
 Alpha  occ. eigenvalues --   -0.45973  -0.45817  -0.45732  -0.45393  -0.45259
 Alpha  occ. eigenvalues --   -0.45167  -0.45030  -0.44859  -0.44678  -0.44459
 Alpha  occ. eigenvalues --   -0.44399  -0.44224  -0.43993  -0.43834  -0.43128
 Alpha  occ. eigenvalues --   -0.42182  -0.42002  -0.41816  -0.41132  -0.40934
 Alpha  occ. eigenvalues --   -0.40574  -0.40306  -0.40262  -0.40121  -0.39643
 Alpha  occ. eigenvalues --   -0.39270  -0.39061  -0.39003  -0.38664  -0.38374
 Alpha  occ. eigenvalues --   -0.38351  -0.38244  -0.38205  -0.37955  -0.37582
 Alpha  occ. eigenvalues --   -0.37457  -0.37240  -0.36883  -0.36657  -0.36094
 Alpha  occ. eigenvalues --   -0.35198  -0.34823  -0.34420  -0.34109  -0.32142
 Alpha  occ. eigenvalues --   -0.29108  -0.28805  -0.28582  -0.27715  -0.27210
 Alpha  occ. eigenvalues --   -0.27044  -0.26195  -0.25909
 Alpha virt. eigenvalues --   -0.07270  -0.00671  -0.00476   0.00710   0.02432
 Alpha virt. eigenvalues --    0.02696   0.03683   0.04023   0.04723   0.05479
 Alpha virt. eigenvalues --    0.05861   0.06101   0.07080   0.08539   0.10795

 Mulliken charges:
               1
     1  O   -0.484316
     2  N   -0.579620
     3  O   -0.562063
     4  O   -0.571208
     5  C   -0.345851
     6  N    0.423438
     7  C    0.204531
     8  C    0.653629
     9  C    0.022965
    10  C   -0.103378
    11  C    0.639854
    12  C   -0.108302
    13  C   -0.118543
    14  C   -0.128627
    15  C   -0.126685
    16  O   -0.401297
    17  O   -0.396335
    18  H    0.368878
    19  H    0.391288
    20  H    0.439951
    21  H    0.128574
    22  H    0.161582
    23  H    0.182704
    24  H    0.189711
    25  H    0.185246
    26  H    0.168316
    27  H    0.191519
    28  O   -0.655677
    29  O   -0.627633
    30  C   -0.407217
    31  O   -0.655953
    32  C   -0.411188
    33  C   -0.401602
    34  O   -0.712456
    35  C   -0.400793
    36  C   -0.406841
    37  C   -0.393689
    38  C   -0.211713
    39  C    0.135435
    40  C   -0.151916
    41  C   -0.199673
    42  C    0.098430
    43  C    0.128614
    44  C   -0.051767
    45  C    0.230863
    46  C   -0.142070
    47  C    0.105185
    48  C   -0.211489
    49  C    0.122333
    50  C    0.027486
    51  C   -0.150479
    52  C    0.007567
    53  C    0.225744
    54  C   -0.266773
    55  C   -0.012314
    56  C   -0.152305
    57  C   -0.048381
    58  C    0.033869
    59  C   -0.195768
    60  C   -0.143609
    61  C    0.097529
    62  C   -0.219337
    63  C    0.099396
    64  C    0.090681
    65  C   -0.210268
    66  C   -0.266372
    67  P    1.297765
    68  H    0.302811
    69  H    0.130145
    70  H    0.131434
    71  H    0.129716
    72  H    0.115647
    73  H    0.133012
    74  H    0.167963
    75  H    0.126449
    76  H    0.117177
    77  H    0.144109
    78  H    0.093126
    79  H    0.126030
    80  H    0.185709
    81  H    0.150681
    82  H    0.117737
    83  H    0.141413
    84  H    0.123102
    85  H    0.164557
    86  H    0.110507
    87  H    0.092775
    88  H    0.114895
    89  H    0.094259
    90  H    0.138006
    91  H    0.111789
    92  H    0.121926
    93  H    0.134066
    94  H    0.130731
    95  H    0.114349
    96  H    0.088322
    97  H    0.119247
    98  H    0.097745
    99  H    0.112357
   100  H    0.133279
   101  H    0.134016
   102  H    0.131343
 Sum of Mulliken charges =  -0.00000

 Dipole moment (field-independent basis, Debye):
    X=              0.9793    Y=              3.8149    Z=             -4.6206  Tot=              6.0715
 Quadrupole moment (field-independent basis, Debye-Ang):
   XX=           -337.4646   YY=           -311.8976   ZZ=           -334.0562
   XY=             27.2237   XZ=            -20.1058   YZ=             -8.2555

  Exact polarizability:       0.000       0.000       0.000       0.000       0.000       0.000
 Approx polarizability:     675.550      69.271     619.183       9.252     -56.198     659.910

 Normal termination of Gaussian 16 at Sat Oct 29 19:08:40 2022.
